 Entering Gaussian System, Link 0=g09
 Initial command:
 /home/kanhaya91/Software/g09/l1.exe /tmp/Gau-6664.inp -scrdir=/tmp/
 Entering Link 1 = /home/kanhaya91/Software/g09/l1.exe PID=      6666.
  
 Copyright (c) 1988,1990,1992,1993,1995,1998,2003,2009, Gaussian, Inc.
                  All Rights Reserved.
  
 This is part of the Gaussian(R) 09 program.  It is based on
 the Gaussian(R) 03 system (copyright 2003, Gaussian, Inc.),
 the Gaussian(R) 98 system (copyright 1998, Gaussian, Inc.),
 the Gaussian(R) 94 system (copyright 1995, Gaussian, Inc.),
 the Gaussian 92(TM) system (copyright 1992, Gaussian, Inc.),
 the Gaussian 90(TM) system (copyright 1990, Gaussian, Inc.),
 the Gaussian 88(TM) system (copyright 1988, Gaussian, Inc.),
 the Gaussian 86(TM) system (copyright 1986, Carnegie Mellon
 University), and the Gaussian 82(TM) system (copyright 1983,
 Carnegie Mellon University). Gaussian is a federally registered
 trademark of Gaussian, Inc.
  
 This software contains proprietary and confidential information,
 including trade secrets, belonging to Gaussian, Inc.
  
 This software is provided under written license and may be
 used, copied, transmitted, or stored only in accord with that
 written license.
  
 The following legend is applicable only to US Government
 contracts under FAR:
  
                    RESTRICTED RIGHTS LEGEND
  
 Use, reproduction and disclosure by the US Government is
 subject to restrictions as set forth in subparagraphs (a)
 and (c) of the Commercial Computer Software - Restricted
 Rights clause in FAR 52.227-19.
  
 Gaussian, Inc.
 340 Quinnipiac St., Bldg. 40, Wallingford CT 06492
  
  
 ---------------------------------------------------------------
 Warning -- This program may not be used in any manner that
 competes with the business of Gaussian, Inc. or will provide
 assistance to any competitor of Gaussian, Inc.  The licensee
 of this program is prohibited from giving any competitor of
 Gaussian, Inc. access to this program.  By using this program,
 the user acknowledges that Gaussian, Inc. is engaged in the
 business of creating and licensing software in the field of
 computational chemistry and represents and warrants to the
 licensee that it is not a competitor of Gaussian, Inc. and that
 it will not use this program in any manner prohibited above.
 ---------------------------------------------------------------
  

 Cite this work as:
 Gaussian 09, Revision A.02,
 M. J. Frisch, G. W. Trucks, H. B. Schlegel, G. E. Scuseria, 
 M. A. Robb, J. R. Cheeseman, G. Scalmani, V. Barone, B. Mennucci, 
 G. A. Petersson, H. Nakatsuji, M. Caricato, X. Li, H. P. Hratchian, 
 A. F. Izmaylov, J. Bloino, G. Zheng, J. L. Sonnenberg, M. Hada, 
 M. Ehara, K. Toyota, R. Fukuda, J. Hasegawa, M. Ishida, T. Nakajima, 
 Y. Honda, O. Kitao, H. Nakai, T. Vreven, J. A. Montgomery, Jr., 
 J. E. Peralta, F. Ogliaro, M. Bearpark, J. J. Heyd, E. Brothers, 
 K. N. Kudin, V. N. Staroverov, R. Kobayashi, J. Normand, 
 K. Raghavachari, A. Rendell, J. C. Burant, S. S. Iyengar, J. Tomasi, 
 M. Cossi, N. Rega, J. M. Millam, M. Klene, J. E. Knox, J. B. Cross, 
 V. Bakken, C. Adamo, J. Jaramillo, R. Gomperts, R. E. Stratmann, 
 O. Yazyev, A. J. Austin, R. Cammi, C. Pomelli, J. W. Ochterski, 
 R. L. Martin, K. Morokuma, V. G. Zakrzewski, G. A. Voth, 
 P. Salvador, J. J. Dannenberg, S. Dapprich, A. D. Daniels, 
 O. Farkas, J. B. Foresman, J. V. Ortiz, J. Cioslowski, 
 and D. J. Fox, Gaussian, Inc., Wallingford CT, 2009.
 
 ******************************************
 Gaussian 09:  EM64L-G09RevA.02 11-Jun-2009
                 5-Jul-2016 
 ******************************************
 %chk=structure.chk
 -------------------------------------------------------
 #P hf/6-31G* Opt=(Tight,CalcFC) Freq SCF(Conver=6) Test
 -------------------------------------------------------
 1/7=10,10=4,18=20,19=15,38=1/1,3;
 2/9=110,12=2,17=6,18=5,40=1/2;
 3/5=1,6=6,7=1,11=9,16=1,25=1,30=1,71=2/1,2,3;
 4//1;
 5/5=2,6=6,38=5/2;
 8/6=4,10=90,11=11/1;
 11/6=1,8=1,9=11,15=111,16=1/1,2,10;
 10/6=1,7=6,13=1/2;
 6/7=2,8=2,9=2,10=2,28=1/1;
 7/10=1,18=20,25=1/1,2,3,16;
 1/7=10,10=4,18=20,19=15/3(2);
 2/9=110/2;
 99//99;
 2/9=110/2;
 3/5=1,6=6,7=1,11=9,16=1,25=1,30=1,71=1/1,2,3;
 4/5=5,16=3/1;
 5/5=2,6=6,38=5/2;
 7//1,2,3,16;
 1/7=10,18=20,19=15/3(-5);
 2/9=110/2;
 6/7=2,8=2,9=2,10=2,19=2,28=1/1;
 99/9=1/99;
 Leave Link    1 at Tue Jul  5 03:48:15 2016, MaxMem=          0 cpu:       0.0
 (Enter /home/kanhaya91/Software/g09/l101.exe)
 -----------------------
 Optimization of phi 510
 -----------------------
 Symbolic Z-matrix:
 Charge =  0 Multiplicity = 1
 H
 C                    1    b2
 H                    2    b3       1    a3
 H                    2    b4       3    a4       1    t4       0
 C                    2    b5       4    a5       1    t5       0
 O                    5    b6       2    a6       1    t6       0
 N                    5    b7       2    a7       1    t7       0
 H                    7    b8       5    a8       2    t8       0
 C                    7    b9       5    a9       2    t9       0
 H                    9    b10      7    a10      5    t10      0
 C                    9    b11      7    a11      5    t11      0
 H                    11   b12      9    a12      7    t12      0
 H                    11   b13      9    a13      7    t13      0
 H                    11   b14      9    a14      7    t14      0
 C                    9    b15      7    a15      5    t15      0
 O                    15   b16      9    a16      7    t16      0
 N                    15   b17      9    a17      7    t17      0
 H                    17   b18      15   a18      9    t18      0
 C                    17   b19      15   a19      9    t19      0
 H                    19   b20      17   a20      15   t20      0
 C                    19   b21      17   a21      15   t21      0
 H                    21   b22      19   a22      17   t22      0
 H                    21   b23      19   a23      17   t23      0
 H                    21   b24      19   a24      17   t24      0
 C                    19   b25      17   a25      15   t25      0
 O                    25   b26      19   a26      17   t26      0
 N                    25   b27      19   a27      17   t27      0
 H                    27   b28      25   a28      19   t28      0
 C                    27   b29      25   a29      19   t29      0
 H                    29   b30      27   a30      25   t30      0
 C                    29   b31      27   a31      25   t31      0
 H                    31   b32      29   a32      27   t32      0
 H                    31   b33      29   a33      27   t33      0
 H                    31   b34      29   a34      27   t34      0
 C                    29   b35      27   a35      25   t35      0
 O                    35   b36      29   a36      27   t36      0
 N                    35   b37      29   a37      27   t37      0
 H                    37   b38      35   a38      29   t38      0
 C                    37   b39      35   a39      29   t39      0
 H                    39   b40      37   a40      35   t40      0
 H                    39   b41      37   a41      35   t41      0
 H                    39   b42      37   a42      35   t42      0
       Variables:
  b2                    1.0809                   
  b3                    1.0835                   
  a3                  110.1472                   
  b4                    1.0851                   
  a4                  108.7326                   
  t4                  118.4205                   
  b5                    1.5084                   
  a5                  108.1704                   
  t5                  117.2408                   
  b6                    1.2067                   
  a6                  122.056                    
  t6                   44.8814                   
  b7                    1.3569                   
  a7                  116.9221                   
  t7                  225.2362                   
  b8                    0.9951                   
  a8                  117.9217                   
  t8                   -6.9508                   
  b9                    1.4537                   
  a9                  121.5151                   
  t9                  193.5612                   
  b10                   1.0811                   
  a10                 107.5819                   
  t10                  23.4308                   
  b11                   1.5281                   
  a11                 110.1673                   
  t11                 142.6155                   
  b12                   1.0868                   
  a12                 111.1092                   
  t12                  60.1103                   
  b13                   1.08                     
  a13                 109.7787                   
  t13                 179.6603                   
  b14                   1.0845                   
  a14                 110.2828                   
  t14                 -60.2501                   
  b15                   1.5328                   
  a15                 115.518                    
  t15                 268.7772                   
  b16                   1.2008                   
  a16                 118.0297                   
  t16                -180.3723                   
  b17                   1.3542                   
  a17                 118.7904                   
  t17                   5.3683                   
  b18                   0.9944                   
  a18                 117.3289                   
  t18                 349.5088                   
  b19                   1.4548                   
  a19                 121.8408                   
  t19                 510.                       
  b20                   1.0801                   
  a20                 106.4262                   
  t20                  -0.481                    
  b21                   1.532                    
  a21                 111.1524                   
  t21                 117.4208                   
  b22                   1.0863                   
  a22                 110.7723                   
  t22                  61.7432                   
  b23                   1.0806                   
  a23                 110.599                    
  t23                -177.9003                   
  b24                   1.0832                   
  a24                 109.1395                   
  t24                 -57.4738                   
  b25                   1.5323                   
  a25                 115.0539                   
  t25                 242.1493                   
  b26                   1.2027                   
  a26                 118.5014                   
  t26                 182.5369                   
  b27                   1.3511                   
  a27                 118.6998                   
  t27                   0.                       
  b28                   0.9962                   
  a28                 118.6752                   
  t28                  24.0764                   
  b29                   1.4591                   
  a29                 120.2191                   
  t29                 180.5685                   
  b30                   1.0841                   
  a30                 108.8573                   
  t30                 -47.9374                   
  b31                   1.5282                   
  a31                 111.9706                   
  t31                  72.6507                   
  b32                   1.0819                   
  a32                 109.8677                   
  t32                  60.693                    
  b33                   1.0859                   
  a33                 110.0577                   
  t33                 180.1396                   
  b34                   1.0804                   
  a34                 110.0465                   
  t34                 -60.3192                   
  b35                   1.529                    
  a35                 107.388                    
  t35                 192.6192                   
  b36                   1.2041                   
  a36                 121.0785                   
  t36                 -68.5627                   
  b37                   1.3441                   
  a37                 115.9082                   
  t37                 112.9858                   
  b38                   0.9934                   
  a38                 118.2051                   
  t38                 -12.0488                   
  b39                   1.4482                   
  a39                 121.1294                   
  t39                 186.4995                   
  b40                   1.0818                   
  a40                 108.6851                   
  t40                -171.6402                   
  b41                   1.0803                   
  a41                 109.707                    
  t41                 -52.6188                   
  b42                   1.0837                   
  a42                 111.2544                   
  t42                -292.1085                   
 
 NAtoms=     42 NQM=     42 NQMF=      0 NMic=      0 NMicF=      0 NTot=     42.
                    Isotopes and Nuclear Properties:
 (Nuclear quadrupole moments (NQMom) in fm**2, nuclear magnetic moments (NMagM)
  in nuclear magnetons)

  Atom         1           2           3           4           5           6           7           8           9          10
 IAtWgt=           1          12           1           1          12          16          14           1          12           1
 AtmWgt=   1.0078250  12.0000000   1.0078250   1.0078250  12.0000000  15.9949146  14.0030740   1.0078250  12.0000000   1.0078250
 NucSpn=           1           0           1           1           0           0           2           1           0           1
 AtZEff=   0.0000000   0.0000000   0.0000000   0.0000000   0.0000000   0.0000000   0.0000000   0.0000000   0.0000000   0.0000000
 NQMom=    0.0000000   0.0000000   0.0000000   0.0000000   0.0000000   0.0000000   2.0440000   0.0000000   0.0000000   0.0000000
 NMagM=    2.7928460   0.0000000   2.7928460   2.7928460   0.0000000   0.0000000   0.4037610   2.7928460   0.0000000   2.7928460

  Atom        11          12          13          14          15          16          17          18          19          20
 IAtWgt=          12           1           1           1          12          16          14           1          12           1
 AtmWgt=  12.0000000   1.0078250   1.0078250   1.0078250  12.0000000  15.9949146  14.0030740   1.0078250  12.0000000   1.0078250
 NucSpn=           0           1           1           1           0           0           2           1           0           1
 AtZEff=   0.0000000   0.0000000   0.0000000   0.0000000   0.0000000   0.0000000   0.0000000   0.0000000   0.0000000   0.0000000
 NQMom=    0.0000000   0.0000000   0.0000000   0.0000000   0.0000000   0.0000000   2.0440000   0.0000000   0.0000000   0.0000000
 NMagM=    0.0000000   2.7928460   2.7928460   2.7928460   0.0000000   0.0000000   0.4037610   2.7928460   0.0000000   2.7928460

  Atom        21          22          23          24          25          26          27          28          29          30
 IAtWgt=          12           1           1           1          12          16          14           1          12           1
 AtmWgt=  12.0000000   1.0078250   1.0078250   1.0078250  12.0000000  15.9949146  14.0030740   1.0078250  12.0000000   1.0078250
 NucSpn=           0           1           1           1           0           0           2           1           0           1
 AtZEff=   0.0000000   0.0000000   0.0000000   0.0000000   0.0000000   0.0000000   0.0000000   0.0000000   0.0000000   0.0000000
 NQMom=    0.0000000   0.0000000   0.0000000   0.0000000   0.0000000   0.0000000   2.0440000   0.0000000   0.0000000   0.0000000
 NMagM=    0.0000000   2.7928460   2.7928460   2.7928460   0.0000000   0.0000000   0.4037610   2.7928460   0.0000000   2.7928460

  Atom        31          32          33          34          35          36          37          38          39          40
 IAtWgt=          12           1           1           1          12          16          14           1          12           1
 AtmWgt=  12.0000000   1.0078250   1.0078250   1.0078250  12.0000000  15.9949146  14.0030740   1.0078250  12.0000000   1.0078250
 NucSpn=           0           1           1           1           0           0           2           1           0           1
 AtZEff=   0.0000000   0.0000000   0.0000000   0.0000000   0.0000000   0.0000000   0.0000000   0.0000000   0.0000000   0.0000000
 NQMom=    0.0000000   0.0000000   0.0000000   0.0000000   0.0000000   0.0000000   2.0440000   0.0000000   0.0000000   0.0000000
 NMagM=    0.0000000   2.7928460   2.7928460   2.7928460   0.0000000   0.0000000   0.4037610   2.7928460   0.0000000   2.7928460

  Atom        41          42
 IAtWgt=           1           1
 AtmWgt=   1.0078250   1.0078250
 NucSpn=           1           1
 AtZEff=   0.0000000   0.0000000
 NQMom=    0.0000000   0.0000000
 NMagM=    2.7928460   2.7928460
 Leave Link  101 at Tue Jul  5 03:48:15 2016, MaxMem=   33554432 cpu:       0.1
 (Enter /home/kanhaya91/Software/g09/l103.exe)

 GradGradGradGradGradGradGradGradGradGradGradGradGradGradGradGradGradGrad
 Berny optimization.
 Initialization pass.
                           ----------------------------
                           !    Initial Parameters    !
                           ! (Angstroms and Degrees)  !
 --------------------------                            --------------------------
 ! Name  Definition              Value          Derivative Info.                !
 --------------------------------------------------------------------------------
 ! R1    R(1,2)                  1.0809         calculate D2E/DX2 analytically  !
 ! R2    R(2,3)                  1.0835         calculate D2E/DX2 analytically  !
 ! R3    R(2,4)                  1.0851         calculate D2E/DX2 analytically  !
 ! R4    R(2,5)                  1.5084         calculate D2E/DX2 analytically  !
 ! R5    R(5,6)                  1.2067         calculate D2E/DX2 analytically  !
 ! R6    R(5,7)                  1.3569         calculate D2E/DX2 analytically  !
 ! R7    R(7,8)                  0.9951         calculate D2E/DX2 analytically  !
 ! R8    R(7,9)                  1.4537         calculate D2E/DX2 analytically  !
 ! R9    R(9,10)                 1.0811         calculate D2E/DX2 analytically  !
 ! R10   R(9,11)                 1.5281         calculate D2E/DX2 analytically  !
 ! R11   R(9,15)                 1.5328         calculate D2E/DX2 analytically  !
 ! R12   R(11,12)                1.0868         calculate D2E/DX2 analytically  !
 ! R13   R(11,13)                1.08           calculate D2E/DX2 analytically  !
 ! R14   R(11,14)                1.0845         calculate D2E/DX2 analytically  !
 ! R15   R(15,16)                1.2008         calculate D2E/DX2 analytically  !
 ! R16   R(15,17)                1.3542         calculate D2E/DX2 analytically  !
 ! R17   R(17,18)                0.9944         calculate D2E/DX2 analytically  !
 ! R18   R(17,19)                1.4548         calculate D2E/DX2 analytically  !
 ! R19   R(19,20)                1.0801         calculate D2E/DX2 analytically  !
 ! R20   R(19,21)                1.532          calculate D2E/DX2 analytically  !
 ! R21   R(19,25)                1.5323         calculate D2E/DX2 analytically  !
 ! R22   R(21,22)                1.0863         calculate D2E/DX2 analytically  !
 ! R23   R(21,23)                1.0806         calculate D2E/DX2 analytically  !
 ! R24   R(21,24)                1.0832         calculate D2E/DX2 analytically  !
 ! R25   R(25,26)                1.2027         calculate D2E/DX2 analytically  !
 ! R26   R(25,27)                1.3511         calculate D2E/DX2 analytically  !
 ! R27   R(27,28)                0.9962         calculate D2E/DX2 analytically  !
 ! R28   R(27,29)                1.4591         calculate D2E/DX2 analytically  !
 ! R29   R(29,30)                1.0841         calculate D2E/DX2 analytically  !
 ! R30   R(29,31)                1.5282         calculate D2E/DX2 analytically  !
 ! R31   R(29,35)                1.529          calculate D2E/DX2 analytically  !
 ! R32   R(31,32)                1.0819         calculate D2E/DX2 analytically  !
 ! R33   R(31,33)                1.0859         calculate D2E/DX2 analytically  !
 ! R34   R(31,34)                1.0804         calculate D2E/DX2 analytically  !
 ! R35   R(35,36)                1.2041         calculate D2E/DX2 analytically  !
 ! R36   R(35,37)                1.3441         calculate D2E/DX2 analytically  !
 ! R37   R(37,38)                0.9934         calculate D2E/DX2 analytically  !
 ! R38   R(37,39)                1.4482         calculate D2E/DX2 analytically  !
 ! R39   R(39,40)                1.0818         calculate D2E/DX2 analytically  !
 ! R40   R(39,41)                1.0803         calculate D2E/DX2 analytically  !
 ! R41   R(39,42)                1.0837         calculate D2E/DX2 analytically  !
 ! A1    A(1,2,3)              110.1472         calculate D2E/DX2 analytically  !
 ! A2    A(1,2,4)              108.2119         calculate D2E/DX2 analytically  !
 ! A3    A(1,2,5)              108.4006         calculate D2E/DX2 analytically  !
 ! A4    A(3,2,4)              108.7326         calculate D2E/DX2 analytically  !
 ! A5    A(3,2,5)              113.0523         calculate D2E/DX2 analytically  !
 ! A6    A(4,2,5)              108.1704         calculate D2E/DX2 analytically  !
 ! A7    A(2,5,6)              122.056          calculate D2E/DX2 analytically  !
 ! A8    A(2,5,7)              116.9221         calculate D2E/DX2 analytically  !
 ! A9    A(6,5,7)              121.0209         calculate D2E/DX2 analytically  !
 ! A10   A(5,7,8)              117.9217         calculate D2E/DX2 analytically  !
 ! A11   A(5,7,9)              121.5151         calculate D2E/DX2 analytically  !
 ! A12   A(8,7,9)              117.4343         calculate D2E/DX2 analytically  !
 ! A13   A(7,9,10)             107.5819         calculate D2E/DX2 analytically  !
 ! A14   A(7,9,11)             110.1673         calculate D2E/DX2 analytically  !
 ! A15   A(7,9,15)             115.518          calculate D2E/DX2 analytically  !
 ! A16   A(10,9,11)            109.4027         calculate D2E/DX2 analytically  !
 ! A17   A(10,9,15)            103.222          calculate D2E/DX2 analytically  !
 ! A18   A(11,9,15)            110.569          calculate D2E/DX2 analytically  !
 ! A19   A(9,11,12)            111.1092         calculate D2E/DX2 analytically  !
 ! A20   A(9,11,13)            109.7787         calculate D2E/DX2 analytically  !
 ! A21   A(9,11,14)            110.2828         calculate D2E/DX2 analytically  !
 ! A22   A(12,11,13)           108.1241         calculate D2E/DX2 analytically  !
 ! A23   A(12,11,14)           108.508          calculate D2E/DX2 analytically  !
 ! A24   A(13,11,14)           108.9789         calculate D2E/DX2 analytically  !
 ! A25   A(9,15,16)            118.0297         calculate D2E/DX2 analytically  !
 ! A26   A(9,15,17)            118.7904         calculate D2E/DX2 analytically  !
 ! A27   A(16,15,17)           122.9147         calculate D2E/DX2 analytically  !
 ! A28   A(15,17,18)           117.3289         calculate D2E/DX2 analytically  !
 ! A29   A(15,17,19)           121.8408         calculate D2E/DX2 analytically  !
 ! A30   A(18,17,19)           117.9804         calculate D2E/DX2 analytically  !
 ! A31   A(17,19,20)           106.4262         calculate D2E/DX2 analytically  !
 ! A32   A(17,19,21)           111.1524         calculate D2E/DX2 analytically  !
 ! A33   A(17,19,25)           115.0539         calculate D2E/DX2 analytically  !
 ! A34   A(20,19,21)           108.4559         calculate D2E/DX2 analytically  !
 ! A35   A(20,19,25)           106.2439         calculate D2E/DX2 analytically  !
 ! A36   A(21,19,25)           109.1781         calculate D2E/DX2 analytically  !
 ! A37   A(19,21,22)           110.7723         calculate D2E/DX2 analytically  !
 ! A38   A(19,21,23)           110.599          calculate D2E/DX2 analytically  !
 ! A39   A(19,21,24)           109.1395         calculate D2E/DX2 analytically  !
 ! A40   A(22,21,23)           108.5142         calculate D2E/DX2 analytically  !
 ! A41   A(22,21,24)           108.3536         calculate D2E/DX2 analytically  !
 ! A42   A(23,21,24)           109.4204         calculate D2E/DX2 analytically  !
 ! A43   A(19,25,26)           118.5014         calculate D2E/DX2 analytically  !
 ! A44   A(19,25,27)           118.6998         calculate D2E/DX2 analytically  !
 ! A45   A(26,25,27)           122.7473         calculate D2E/DX2 analytically  !
 ! A46   A(25,27,28)           118.6752         calculate D2E/DX2 analytically  !
 ! A47   A(25,27,29)           120.2191         calculate D2E/DX2 analytically  !
 ! A48   A(28,27,29)           116.9812         calculate D2E/DX2 analytically  !
 ! A49   A(27,29,30)           108.8573         calculate D2E/DX2 analytically  !
 ! A50   A(27,29,31)           111.9706         calculate D2E/DX2 analytically  !
 ! A51   A(27,29,35)           107.388          calculate D2E/DX2 analytically  !
 ! A52   A(30,29,31)           109.0052         calculate D2E/DX2 analytically  !
 ! A53   A(30,29,35)           110.3243         calculate D2E/DX2 analytically  !
 ! A54   A(31,29,35)           109.2853         calculate D2E/DX2 analytically  !
 ! A55   A(29,31,32)           109.8677         calculate D2E/DX2 analytically  !
 ! A56   A(29,31,33)           110.0577         calculate D2E/DX2 analytically  !
 ! A57   A(29,31,34)           110.0465         calculate D2E/DX2 analytically  !
 ! A58   A(32,31,33)           108.527          calculate D2E/DX2 analytically  !
 ! A59   A(32,31,34)           109.7979         calculate D2E/DX2 analytically  !
 ! A60   A(33,31,34)           108.5131         calculate D2E/DX2 analytically  !
 ! A61   A(29,35,36)           121.0785         calculate D2E/DX2 analytically  !
 ! A62   A(29,35,37)           115.9082         calculate D2E/DX2 analytically  !
 ! A63   A(36,35,37)           122.9941         calculate D2E/DX2 analytically  !
 ! A64   A(35,37,38)           118.2051         calculate D2E/DX2 analytically  !
 ! A65   A(35,37,39)           121.1294         calculate D2E/DX2 analytically  !
 ! A66   A(38,37,39)           118.0889         calculate D2E/DX2 analytically  !
 ! A67   A(37,39,40)           108.6851         calculate D2E/DX2 analytically  !
 ! A68   A(37,39,41)           109.707          calculate D2E/DX2 analytically  !
 ! A69   A(37,39,42)           111.2544         calculate D2E/DX2 analytically  !
 ! A70   A(40,39,41)           108.9425         calculate D2E/DX2 analytically  !
 ! A71   A(40,39,42)           109.3615         calculate D2E/DX2 analytically  !
 ! A72   A(41,39,42)           108.8568         calculate D2E/DX2 analytically  !
 ! D1    D(1,2,5,6)             44.8814         calculate D2E/DX2 analytically  !
 ! D2    D(1,2,5,7)           -134.7638         calculate D2E/DX2 analytically  !
 ! D3    D(3,2,5,6)            167.2972         calculate D2E/DX2 analytically  !
 ! D4    D(3,2,5,7)            -12.348          calculate D2E/DX2 analytically  !
 ! D5    D(4,2,5,6)            -72.2378         calculate D2E/DX2 analytically  !
 ! D6    D(4,2,5,7)            108.117          calculate D2E/DX2 analytically  !
 ! D7    D(2,5,7,8)             -6.9508         calculate D2E/DX2 analytically  !
 ! D8    D(2,5,7,9)           -166.4388         calculate D2E/DX2 analytically  !
 ! D9    D(6,5,7,8)            173.4001         calculate D2E/DX2 analytically  !
 ! D10   D(6,5,7,9)             13.9121         calculate D2E/DX2 analytically  !
 ! D11   D(5,7,9,10)            23.4308         calculate D2E/DX2 analytically  !
 ! D12   D(5,7,9,11)           142.6155         calculate D2E/DX2 analytically  !
 ! D13   D(5,7,9,15)           -91.2228         calculate D2E/DX2 analytically  !
 ! D14   D(8,7,9,10)          -136.1526         calculate D2E/DX2 analytically  !
 ! D15   D(8,7,9,11)           -16.9679         calculate D2E/DX2 analytically  !
 ! D16   D(8,7,9,15)           109.1938         calculate D2E/DX2 analytically  !
 ! D17   D(7,9,11,12)           60.1103         calculate D2E/DX2 analytically  !
 ! D18   D(7,9,11,13)          179.6603         calculate D2E/DX2 analytically  !
 ! D19   D(7,9,11,14)          -60.2501         calculate D2E/DX2 analytically  !
 ! D20   D(10,9,11,12)         178.1793         calculate D2E/DX2 analytically  !
 ! D21   D(10,9,11,13)         -62.2707         calculate D2E/DX2 analytically  !
 ! D22   D(10,9,11,14)          57.8189         calculate D2E/DX2 analytically  !
 ! D23   D(15,9,11,12)         -68.7929         calculate D2E/DX2 analytically  !
 ! D24   D(15,9,11,13)          50.7571         calculate D2E/DX2 analytically  !
 ! D25   D(15,9,11,14)         170.8467         calculate D2E/DX2 analytically  !
 ! D26   D(7,9,15,16)          179.6277         calculate D2E/DX2 analytically  !
 ! D27   D(7,9,15,17)            5.3683         calculate D2E/DX2 analytically  !
 ! D28   D(10,9,15,16)          62.4988         calculate D2E/DX2 analytically  !
 ! D29   D(10,9,15,17)        -111.7606         calculate D2E/DX2 analytically  !
 ! D30   D(11,9,15,16)         -54.4154         calculate D2E/DX2 analytically  !
 ! D31   D(11,9,15,17)         131.3252         calculate D2E/DX2 analytically  !
 ! D32   D(9,15,17,18)         -10.4912         calculate D2E/DX2 analytically  !
 ! D33   D(9,15,17,19)         150.0            calculate D2E/DX2 analytically  !
 ! D34   D(16,15,17,18)        175.546          calculate D2E/DX2 analytically  !
 ! D35   D(16,15,17,19)        -23.9628         calculate D2E/DX2 analytically  !
 ! D36   D(15,17,19,20)         -0.481          calculate D2E/DX2 analytically  !
 ! D37   D(15,17,19,21)        117.4208         calculate D2E/DX2 analytically  !
 ! D38   D(15,17,19,25)       -117.8507         calculate D2E/DX2 analytically  !
 ! D39   D(18,17,19,20)        159.8888         calculate D2E/DX2 analytically  !
 ! D40   D(18,17,19,21)        -82.2094         calculate D2E/DX2 analytically  !
 ! D41   D(18,17,19,25)         42.5191         calculate D2E/DX2 analytically  !
 ! D42   D(17,19,21,22)         61.7432         calculate D2E/DX2 analytically  !
 ! D43   D(17,19,21,23)       -177.9003         calculate D2E/DX2 analytically  !
 ! D44   D(17,19,21,24)        -57.4738         calculate D2E/DX2 analytically  !
 ! D45   D(20,19,21,22)        178.4086         calculate D2E/DX2 analytically  !
 ! D46   D(20,19,21,23)        -61.2349         calculate D2E/DX2 analytically  !
 ! D47   D(20,19,21,24)         59.1916         calculate D2E/DX2 analytically  !
 ! D48   D(25,19,21,22)        -66.2318         calculate D2E/DX2 analytically  !
 ! D49   D(25,19,21,23)         54.1247         calculate D2E/DX2 analytically  !
 ! D50   D(25,19,21,24)        174.5512         calculate D2E/DX2 analytically  !
 ! D51   D(17,19,25,26)       -177.4631         calculate D2E/DX2 analytically  !
 ! D52   D(17,19,25,27)          0.0            calculate D2E/DX2 analytically  !
 ! D53   D(20,19,25,26)         65.0642         calculate D2E/DX2 analytically  !
 ! D54   D(20,19,25,27)       -117.4727         calculate D2E/DX2 analytically  !
 ! D55   D(21,19,25,26)        -51.7083         calculate D2E/DX2 analytically  !
 ! D56   D(21,19,25,27)        125.7548         calculate D2E/DX2 analytically  !
 ! D57   D(19,25,27,28)         24.0764         calculate D2E/DX2 analytically  !
 ! D58   D(19,25,27,29)       -179.4315         calculate D2E/DX2 analytically  !
 ! D59   D(26,25,27,28)       -158.5744         calculate D2E/DX2 analytically  !
 ! D60   D(26,25,27,29)         -2.0823         calculate D2E/DX2 analytically  !
 ! D61   D(25,27,29,30)        -47.9374         calculate D2E/DX2 analytically  !
 ! D62   D(25,27,29,31)         72.6507         calculate D2E/DX2 analytically  !
 ! D63   D(25,27,29,35)       -167.3808         calculate D2E/DX2 analytically  !
 ! D64   D(28,27,29,30)        108.9401         calculate D2E/DX2 analytically  !
 ! D65   D(28,27,29,31)       -130.4718         calculate D2E/DX2 analytically  !
 ! D66   D(28,27,29,35)        -10.5033         calculate D2E/DX2 analytically  !
 ! D67   D(27,29,31,32)         60.693          calculate D2E/DX2 analytically  !
 ! D68   D(27,29,31,33)       -179.8604         calculate D2E/DX2 analytically  !
 ! D69   D(27,29,31,34)        -60.3192         calculate D2E/DX2 analytically  !
 ! D70   D(30,29,31,32)       -178.8049         calculate D2E/DX2 analytically  !
 ! D71   D(30,29,31,33)        -59.3583         calculate D2E/DX2 analytically  !
 ! D72   D(30,29,31,34)         60.1829         calculate D2E/DX2 analytically  !
 ! D73   D(35,29,31,32)        -58.16           calculate D2E/DX2 analytically  !
 ! D74   D(35,29,31,33)         61.2866         calculate D2E/DX2 analytically  !
 ! D75   D(35,29,31,34)       -179.1722         calculate D2E/DX2 analytically  !
 ! D76   D(27,29,35,36)        -68.5627         calculate D2E/DX2 analytically  !
 ! D77   D(27,29,35,37)        112.9858         calculate D2E/DX2 analytically  !
 ! D78   D(30,29,35,36)        172.9369         calculate D2E/DX2 analytically  !
 ! D79   D(30,29,35,37)         -5.5146         calculate D2E/DX2 analytically  !
 ! D80   D(31,29,35,36)         53.1006         calculate D2E/DX2 analytically  !
 ! D81   D(31,29,35,37)       -125.3509         calculate D2E/DX2 analytically  !
 ! D82   D(29,35,37,38)        -12.0488         calculate D2E/DX2 analytically  !
 ! D83   D(29,35,37,39)       -173.5005         calculate D2E/DX2 analytically  !
 ! D84   D(36,35,37,38)        169.5324         calculate D2E/DX2 analytically  !
 ! D85   D(36,35,37,39)          8.0807         calculate D2E/DX2 analytically  !
 ! D86   D(35,37,39,40)       -171.6402         calculate D2E/DX2 analytically  !
 ! D87   D(35,37,39,41)        -52.6188         calculate D2E/DX2 analytically  !
 ! D88   D(35,37,39,42)         67.8915         calculate D2E/DX2 analytically  !
 ! D89   D(38,37,39,40)         26.8872         calculate D2E/DX2 analytically  !
 ! D90   D(38,37,39,41)        145.9086         calculate D2E/DX2 analytically  !
 ! D91   D(38,37,39,42)        -93.5811         calculate D2E/DX2 analytically  !
 --------------------------------------------------------------------------------
 Trust Radius=3.00D-01 FncErr=1.00D-07 GrdErr=1.00D-07
 Number of steps in this run= 214 maximum allowed number of steps= 252.
 GradGradGradGradGradGradGradGradGradGradGradGradGradGradGradGradGradGrad

 Leave Link  103 at Tue Jul  5 03:48:15 2016, MaxMem=   33554432 cpu:       0.0
 (Enter /home/kanhaya91/Software/g09/l202.exe)
                          Input orientation:                          
 ---------------------------------------------------------------------
 Center     Atomic      Atomic             Coordinates (Angstroms)
 Number     Number       Type             X           Y           Z
 ---------------------------------------------------------------------
      1          1           0        0.000000    0.000000    0.000000
      2          6           0        0.000000    0.000000    1.080900
      3          1           0        1.017202    0.000000    1.454093
      4          1           0       -0.495615   -0.903769    1.420029
      5          6           0       -0.803829    1.184238    1.557039
      6          8           0       -1.870704    1.471019    1.071591
      7          7           0       -0.269456    1.926505    2.559369
      8          1           0        0.561647    1.593527    2.993671
      9          6           0       -1.063904    2.899506    3.291054
     10          1           0       -2.101396    2.610047    3.198311
     11          6           0       -0.667200    2.900802    4.766762
     12          1           0        0.381622    3.157600    4.889893
     13          1           0       -1.256745    3.629667    5.303039
     14          1           0       -0.835348    1.921857    5.202117
     15          6           0       -1.045824    4.324752    2.727297
     16          8           0       -1.692453    5.163620    3.293065
     17          7           0       -0.403804    4.555286    1.557458
     18          1           0        0.163190    3.822785    1.195808
     19          6           0       -0.826600    5.605621    0.643957
     20          1           0       -1.685783    6.077406    1.097652
     21          6           0        0.270224    6.660825    0.469179
     22          1           0        1.164966    6.219028    0.039878
     23          1           0       -0.066506    7.455003   -0.181659
     24          1           0        0.524447    7.072704    1.438224
     25          6           0       -1.282869    5.120493   -0.736047
     26          8           0       -1.601679    5.940443   -1.556125
     27          7           0       -1.260835    3.795186   -0.997862
     28          1           0       -1.309192    3.156353   -0.234993
     29          6           0       -1.676383    3.297860   -2.305134
     30          1           0       -2.619577    3.760664   -2.572471
     31          6           0       -0.644888    3.608085   -3.389188
     32          1           0        0.297206    3.134690   -3.146569
     33          1           0       -0.985657    3.227413   -4.347386
     34          1           0       -0.506557    4.676233   -3.473966
     35          6           0       -1.843290    1.782700   -2.185661
     36          8           0       -0.891694    1.063651   -2.020465
     37          7           0       -3.098714    1.318642   -2.308814
     38          1           0       -3.845715    1.973021   -2.283926
     39          6           0       -3.407024   -0.077256   -2.077087
     40          1           0       -4.431768   -0.259444   -2.372043
     41          1           0       -2.754701   -0.698297   -2.673602
     42          1           0       -3.281696   -0.339186   -1.033012
 ---------------------------------------------------------------------
                    Distance matrix (angstroms):
                    1          2          3          4          5
     1  H    0.000000
     2  C    1.080900   0.000000
     3  H    1.774567   1.083500   0.000000
     4  H    1.754684   1.085100   1.762548   0.000000
     5  C    2.114931   1.508400   2.174666   2.115075   0.000000
     6  O    2.609930   2.379814   3.263465   2.766206   1.206700
     7  N    3.214715   2.443337   2.566815   3.059362   1.356900
     8  H    3.437563   2.552150   2.262113   3.135385   2.023846
     9  C    4.513321   3.797869   4.014046   4.276517   2.452874
    10  H    4.632214   3.963791   4.424962   4.252966   2.531873
    11  C    5.619772   4.737657   4.714407   5.069993   3.642469
    12  H    5.833277   4.962308   4.709471   5.413337   4.050600
    13  H    6.547986   5.707920   5.758446   6.017403   4.496418
    14  H    5.608330   4.623394   4.601430   4.733263   3.719095
    15  C    5.218753   4.744244   4.957883   5.417483   3.360192
    16  O    6.353868   5.866945   6.114492   6.461725   4.431581
    17  N    4.831083   4.597912   4.772900   5.461556   3.394699
    18  H    4.008775   3.827992   3.925523   4.777512   2.833292
    19  C    5.702713   5.683060   5.956417   6.563840   4.514738
    20  H    6.401684   6.306901   6.660934   7.089233   4.993192
    21  C    6.682794   6.694312   6.774556   7.662487   5.685950
    22  H    6.327325   6.412268   6.379510   7.442888   5.614894
    23  H    7.457513   7.561451   7.708903   8.521656   6.548985
    24  H    7.236482   7.101117   7.089866   8.041454   6.037587
    25  C    5.329818   5.582696   6.025486   6.446717   4.580592
    26  O    6.346319   6.693889   7.156034   7.544807   5.740196
    27  N    4.121755   4.507149   5.060135   5.339657   3.681497
    28  H    3.425167   3.661710   4.269389   4.459327   2.712196
    29  C    4.358874   5.015113   5.680058   5.738008   4.488332
    30  H    5.255700   5.861049   6.601665   6.496785   5.194975
    31  C    4.992069   5.780644   6.264039   6.596035   5.510486
    32  H    4.451461   5.271252   5.613445   6.147481   5.209651
    33  H    5.503406   6.391714   6.934321   7.111251   6.250589
    34  H    5.847410   6.547562   6.962382   7.422111   6.131347
    35  C    3.369400   4.152850   4.960670   4.694076   3.930197
    36  O    2.451275   3.397784   4.104606   3.983042   3.580614
    37  N    4.083071   4.778180   5.730536   5.061571   4.497709
    38  H    4.888625   5.477626   6.443102   5.763538   4.962687
    39  C    3.990999   4.646145   5.661181   4.624851   4.644875
    40  H    5.033336   5.624117   6.663175   5.503477   5.539300
    41  H    3.901813   4.708745   5.634957   4.680117   5.024755
    42  H    3.457122   3.918316   4.978078   3.754785   3.894742
                    6          7          8          9         10
     6  O    0.000000
     7  N    2.232699   0.000000
     8  H    3.102536   0.995100   0.000000
     9  C    2.759986   1.453700   2.106284   0.000000
    10  H    2.423540   2.057056   2.857794   1.081100   0.000000
    11  C    4.140893   2.445413   2.522476   1.528100   2.145109
    12  H    4.743096   2.714930   2.464628   2.170816   3.053955
    13  H    4.789767   3.376867   3.575695   2.149048   2.486552
    14  H    4.282111   2.702661   2.633748   2.158749   2.468141
    15  C    3.400821   2.526369   3.180332   1.532800   2.067922
    16  O    4.313007   3.611391   4.232749   2.349742   2.587846
    17  N    3.449720   2.816445   3.430279   2.486502   3.059113
    18  H    3.111746   2.375365   2.891482   2.597742   3.257162
    19  C    4.285785   4.185105   4.852347   3.792953   4.138030
    20  H    4.610171   4.623048   5.361995   3.911111   4.075301
    21  C    5.646287   5.203262   5.668817   4.887780   5.429691
    22  H    5.729163   5.179880   5.521244   5.153371   5.802548
    23  H    6.374467   6.174036   6.695834   5.814386   6.248086
    24  H    6.103281   5.326407   5.695803   4.834399   5.468845
    25  C    4.114823   4.699822   5.454587   4.604158   4.738302
    26  O    5.191630   5.901170   6.654044   5.747317   5.826313
    27  N    3.171171   4.138682   4.909284   4.385867   4.440604
    28  H    2.205178   3.225218   4.045582   3.543888   3.565616
    29  C    3.844135   5.246279   5.999238   5.643681   5.562520
    30  H    4.368349   5.934896   6.767466   6.127205   5.907145
    31  C    5.095902   6.193060   6.801107   6.730772   6.820018
    32  H    5.025982   5.859909   6.336217   6.584142   6.803385
    33  H    5.764854   7.064600   7.678206   7.645876   7.652684
    34  H    5.726812   6.634633   7.243926   7.016616   7.164630
    35  C    3.272245   5.001294   5.713579   5.643502   5.453282
    36  O    3.268825   4.701763   5.247335   5.622478   5.575872
    37  N    3.599773   5.663338   6.449042   6.164261   5.743762
    38  H    3.925833   6.020739   6.886355   6.298988   5.788210
    39  C    3.830353   5.946100   6.652401   6.570256   6.062680
    40  H    4.627328   6.813372   7.560329   7.306994   6.685317
    41  H    4.417448   6.360032   6.954754   7.167992   6.771360
    42  H    3.114015   5.206932   5.892439   5.839973   5.291047
                   11         12         13         14         15
    11  C    0.000000
    12  H    1.086800   0.000000
    13  H    1.080000   1.754361   0.000000
    14  H    1.084500   1.762259   1.761924   0.000000
    15  C    2.516031   2.841949   2.676207   3.455856   0.000000
    16  O    2.888472   3.297842   2.565706   3.858514   1.200800
    17  N    3.620266   3.698046   3.951412   4.517158   1.354200
    18  H    3.780386   3.759847   4.350042   4.545451   2.014732
    19  C    4.933454   5.047829   5.079022   5.860632   2.455399
    20  H    4.958900   5.213495   4.884750   5.902411   2.477314
    21  C    5.786688   5.641605   5.906416   6.788284   3.505469
    22  H    6.058951   5.788663   6.345891   7.008255   3.962082
    23  H    6.751922   6.662517   6.792038   7.758342   4.384011
    24  H    5.468451   5.221347   5.473933   6.522818   3.417411
    25  C    5.965483   6.186654   6.220435   6.759685   3.561480
    26  O    7.077540   7.295811   7.246158   7.900009   4.611630
    27  N    5.863720   6.145717   6.303076   6.490774   3.768750
    28  H    5.049259   5.396602   5.558469   5.595594   3.195259
    29  C    7.154566   7.484883   7.626958   7.678512   5.174695
    30  H    7.643003   8.065840   7.993631   8.185897   5.557196
    31  C    8.186591   8.354630   8.713762   8.757292   6.171365
    32  H    7.975311   8.036938   8.605559   8.512003   6.141846
    33  H    9.125557   9.338183   9.662609   9.639507   7.159533
    34  H    8.431344   8.546885   8.870958   9.108738   6.234581
    35  C    7.139295   7.543478   7.735371   7.457519   5.588841
    36  O    7.035054   7.332053   7.768618   7.273609   5.761925
    37  N    7.647174   8.204626   8.165415   7.867706   6.213974
    38  H    7.789476   8.410546   8.185920   8.068815   6.203417
    39  C    7.950707   8.564867   8.534122   7.974759   6.930732
    40  H    8.667276   9.358453   9.171306   8.663731   7.647401
    41  H    8.524682   9.050465   9.197932   8.519160   7.571062
    42  H    7.139362   7.792831   7.745823   7.069213   6.394635
                   16         17         18         19         20
    16  O    0.000000
    17  N    2.245666   0.000000
    18  H    3.104793   0.994400   0.000000
    19  C    2.821850   1.454800   2.112517   0.000000
    20  H    2.378001   2.042484   2.917474   1.080100   0.000000
    21  C    3.750740   2.464134   2.931538   1.532000   2.135725
    22  H    4.456675   2.744472   2.842834   2.169681   3.043964
    23  H    4.468540   3.398037   3.891424   2.163238   2.481223
    24  H    3.464056   2.685751   3.278909   2.146746   2.447800
    25  C    4.050107   2.520393   2.739926   1.532300   2.107243
    26  O    4.911858   3.612197   3.895174   2.356527   2.658640
    27  N    4.524485   2.800342   2.615492   2.482299   3.127345
    28  H    4.077156   2.447370   2.158525   2.646575   3.232694
    29  C    5.900945   4.256782   3.989507   3.839926   4.393736
    30  H    6.101833   4.753671   4.684825   4.118743   4.439489
    31  C    6.940432   5.042283   4.660609   4.504379   5.226159
    32  H    7.038763   4.963605   4.398598   4.662245   5.532200
    33  H    7.913593   6.080213   5.692216   5.531246   6.185554
    34  H    6.887424   5.033926   4.794134   4.233613   4.924789
    35  C    6.439706   4.875479   4.429700   4.863654   5.408276
    36  O    6.759036   5.023055   4.366922   5.266201   5.957429
    37  N    6.938478   5.717208   5.403066   5.679749   6.020483
    38  H    6.776377   5.768108   5.621521   5.557278   5.739891
    39  C    7.697082   6.609818   6.218407   6.808653   7.135930
    40  H    8.307041   7.405883   7.106884   7.516148   7.728835
    41  H    8.431581   7.143439   6.627715   7.379915   7.827840
    42  H    7.177848   6.240885   5.844389   6.646837   6.946892
                   21         22         23         24         25
    21  C    0.000000
    22  H    1.086300   0.000000
    23  H    1.080600   1.758760   0.000000
    24  H    1.083200   1.759090   1.766182   0.000000
    25  C    2.497456   2.792979   2.690134   3.435837   0.000000
    26  O    2.850409   3.206113   2.557305   3.842988   1.202700
    27  N    3.564861   3.582795   3.935336   4.456890   1.351100
    28  H    3.907906   3.946769   4.474986   4.636776   2.027213
    29  C    4.774476   4.701655   4.937883   5.753766   2.436981
    30  H    5.100345   5.214469   5.087465   6.077843   2.647334
    31  C    5.004363   4.674515   5.041979   6.055975   3.119864
    32  H    5.050543   4.518804   5.252436   6.048134   3.500095
    33  H    6.046888   5.729138   6.005884   7.109147   4.088258
    34  H    4.482230   4.185846   4.330646   5.561983   2.880317
    35  C    5.942324   5.803760   6.272799   6.835413   3.681890
    36  O    6.235121   5.920538   6.701606   7.076489   4.273255
    37  N    6.899703   6.907177   7.167566   7.763815   4.497217
    38  H    6.818800   6.966747   6.982412   7.678508   4.344041
    39  C    8.087481   8.063983   8.454977   8.884582   5.772956
    40  H    8.835802   8.894458   9.130498   9.635487   6.444825
    41  H    8.554759   8.400961   8.939378   9.383410   6.307037
    42  H    7.992049   7.995877   8.474174   8.690790   5.821648
                   26         27         28         29         30
    26  O    0.000000
    27  N    2.242758   0.000000
    28  H    3.095496   0.996200   0.000000
    29  C    2.747697   1.459100   2.107211   0.000000
    30  H    2.611611   2.080088   2.747018   1.084100   0.000000
    31  C    3.116964   2.476457   3.254890   1.528200   2.142360
    32  H    3.742663   2.735085   3.325396   2.151671   3.037936
    33  H    3.940959   3.408431   4.125713   2.157049   2.470703
    34  H    2.544726   2.734277   3.666770   2.152806   2.473017
    35  C    4.212068   2.408365   2.444850   1.529000   2.159765
    36  O    4.950030   2.939943   2.782376   2.385050   3.250257
    37  N    4.916167   3.351069   3.298531   2.437282   2.502511
    38  H    4.615824   3.414066   3.468768   2.541978   2.186856
    39  C    6.304235   4.557045   4.272053   3.799807   3.949064
    40  H    6.863944   5.327590   5.097562   4.500115   4.414236
    41  H    6.830160   5.023059   4.784834   4.155455   4.462154
    42  H    6.521491   4.601971   4.092236   4.174137   4.429120
                   31         32         33         34         35
    31  C    0.000000
    32  H    1.081900   0.000000
    33  H    1.085900   1.759630   0.000000
    34  H    1.080400   1.769062   1.758261   0.000000
    35  C    2.493326   2.707940   2.737843   3.437894   0.000000
    36  O    2.899734   2.640226   3.178877   3.913022   1.204100
    37  N    3.525623   3.941083   3.502027   4.398895   1.344100
    38  H    3.760364   4.388328   3.743167   4.457974   2.013848
    39  C    4.788814   5.018138   4.683814   5.741049   2.432383
    40  H    5.507525   5.872242   5.285436   6.401752   3.302319
    41  H    4.848536   4.922359   4.619769   5.880502   2.687769
    42  H    5.299553   5.416961   5.383075   6.230094   2.810696
                   36         37         38         39         40
    36  O    0.000000
    37  N    2.240335   0.000000
    38  H    3.102033   0.993400   0.000000
    39  C    2.762565   1.448200   2.106862   0.000000
    40  H    3.795565   2.066734   2.309789   1.081800   0.000000
    41  H    2.646100   2.078330   2.911718   1.080300   1.759569
    42  H    2.941959   2.099892   2.688718   1.083700   1.766926
                   41         42
    41  H    0.000000
    42  H    1.760176   0.000000
 Stoichiometry    C12H22N4O4
 Framework group  C1[X(C12H22N4O4)]
 Deg. of freedom   120
 Full point group                 C1      NOp   1
 Largest Abelian subgroup         C1      NOp   1
 Largest concise Abelian subgroup C1      NOp   1
                         Standard orientation:                         
 ---------------------------------------------------------------------
 Center     Atomic      Atomic             Coordinates (Angstroms)
 Number     Number       Type             X           Y           Z
 ---------------------------------------------------------------------
      1          1           0        1.117946   -2.636208    1.680568
      2          6           0        0.140178   -3.058846    1.497018
      3          1           0       -0.416943   -3.126903    2.423817
      4          1           0        0.272611   -4.058322    1.095831
      5          6           0       -0.552394   -2.220366    0.451758
      6          8           0        0.011567   -1.849184   -0.548390
      7          7           0       -1.847287   -1.890571    0.687689
      8          1           0       -2.297114   -2.302174    1.474114
      9          6           0       -2.695394   -1.345039   -0.359380
     10          1           0       -2.281176   -1.653685   -1.309085
     11          6           0       -4.116395   -1.890494   -0.224010
     12          1           0       -4.548539   -1.622820    0.736581
     13          1           0       -4.742210   -1.476794   -1.000931
     14          1           0       -4.114045   -2.971479   -0.311222
     15          6           0       -2.713271    0.184012   -0.465010
     16          8           0       -3.393884    0.682706   -1.319406
     17          7           0       -1.878360    0.902015    0.323186
     18          1           0       -1.404306    0.414974    1.049061
     19          6           0       -1.346891    2.190202   -0.094616
     20          1           0       -1.745302    2.379758   -1.080492
     21          6           0       -1.813418    3.310332    0.840630
     22          1           0       -1.455770    3.141465    1.852371
     23          1           0       -1.443957    4.267458    0.501358
     24          1           0       -2.896284    3.328666    0.860266
     25          6           0        0.178259    2.249906   -0.229888
     26          8           0        0.687470    3.298215   -0.526938
     27          7           0        0.897542    1.138392    0.039627
     28          1           0        0.452742    0.250467   -0.038845
     29          6           0        2.352594    1.161586   -0.066483
     30          1           0        2.627852    1.618402   -1.010318
     31          6           0        2.996553    1.948953    1.074028
     32          1           0        2.747786    1.492003    2.022617
     33          1           0        4.076814    1.948376    0.963511
     34          1           0        2.650718    2.972396    1.058979
     35          6           0        2.837541   -0.287609   -0.016468
     36          8           0        2.747065   -0.938871    0.992258
     37          7           0        3.390488   -0.761188   -1.146325
     38          1           0        3.288632   -0.227904   -1.978236
     39          6           0        3.760565   -2.155712   -1.271340
     40          1           0        4.315517   -2.285927   -2.190777
     41          1           0        4.387685   -2.442157   -0.439644
     42          1           0        2.885349   -2.794599   -1.286398
 ---------------------------------------------------------------------
 Rotational constants (GHZ):      0.3960579      0.2732939      0.1848754
 Leave Link  202 at Tue Jul  5 03:48:15 2016, MaxMem=   33554432 cpu:       0.0
 (Enter /home/kanhaya91/Software/g09/l301.exe)
 Standard basis: 6-31G(d) (6D, 7F)
 Ernie: Thresh=  0.10000D-02 Tol=  0.10000D-05 Strict=F.
 There are   344 symmetry adapted basis functions of A   symmetry.
 Integral buffers will be    131072 words long.
 Raffenetti 1 integral format.
 Two-electron integral symmetry is turned on.
   344 basis functions,   648 primitive gaussians,   344 cartesian basis functions
    77 alpha electrons       77 beta electrons
       nuclear repulsion energy      1734.0468786307 Hartrees.
 IExCor=    0 DFT=F Ex=HF Corr=None ExCW=0 ScaHFX=  1.000000
 ScaDFX=  1.000000  1.000000  1.000000  1.000000 ScalE2=  1.000000  1.000000
 IRadAn=      0 IRanWt=     -1 IRanGd=            0 ICorTp=0
 NAtoms=   42 NActive=   42 NUniq=   42 SFac= 7.50D-01 NAtFMM=   80 NAOKFM=F Big=F
 Leave Link  301 at Tue Jul  5 03:48:15 2016, MaxMem=   33554432 cpu:       0.1
 (Enter /home/kanhaya91/Software/g09/l302.exe)
 NPDir=0 NMtPBC=     1 NCelOv=     1 NCel=       1 NClECP=     1 NCelD=      1
         NCelK=      1 NCelE2=     1 NClLst=     1 CellRange=     0.0.
 One-electron integrals computed using PRISM.
 NBasis=   344 RedAO= T  NBF=   344
 NBsUse=   344 1.00D-06 NBFU=   344
 Leave Link  302 at Tue Jul  5 03:48:16 2016, MaxMem=   33554432 cpu:       0.5
 (Enter /home/kanhaya91/Software/g09/l303.exe)
 DipDrv:  MaxL=1.
 Leave Link  303 at Tue Jul  5 03:48:16 2016, MaxMem=   33554432 cpu:       0.1
 (Enter /home/kanhaya91/Software/g09/l401.exe)
 Harris functional with IExCor=  205 diagonalized for initial guess.
 ExpMin= 1.61D-01 ExpMax= 5.48D+03 ExpMxC= 8.25D+02 IAcc=1 IRadAn=         1 AccDes= 0.00D+00
 HarFok:  IExCor=  205 AccDes= 0.00D+00 IRadAn=         1 IDoV= 1
 ScaDFX=  1.000000  1.000000  1.000000  1.000000
 FoFCou: FMM=F IPFlag=           0 FMFlag=      100000 FMFlg1=           0
         NFxFlg=           0 DoJE=T BraDBF=F KetDBF=T FulRan=T
         Omega=  0.000000  0.000000  1.000000  0.000000  0.000000 ICntrl=     500 IOpCl=  0
         NMat0=    1 NMatS0=    1 NMatT0=    0 NMatD0=    1 NMtDS0=    0 NMtDT0=    0
         I1Cent=           4 NGrid=           0.
 Petite list used in FoFCou.
 Harris En= -985.884391473631    
 Initial guess orbital symmetries:
       Occupied  (A) (A) (A) (A) (A) (A) (A) (A) (A) (A) (A) (A)
                 (A) (A) (A) (A) (A) (A) (A) (A) (A) (A) (A) (A)
                 (A) (A) (A) (A) (A) (A) (A) (A) (A) (A) (A) (A)
                 (A) (A) (A) (A) (A) (A) (A) (A) (A) (A) (A) (A)
                 (A) (A) (A) (A) (A) (A) (A) (A) (A) (A) (A) (A)
                 (A) (A) (A) (A) (A) (A) (A) (A) (A) (A) (A) (A)
                 (A) (A) (A) (A) (A)
       Virtual   (A) (A) (A) (A) (A) (A) (A) (A) (A) (A) (A) (A)
                 (A) (A) (A) (A) (A) (A) (A) (A) (A) (A) (A) (A)
                 (A) (A) (A) (A) (A) (A) (A) (A) (A) (A) (A) (A)
                 (A) (A) (A) (A) (A) (A) (A) (A) (A) (A) (A) (A)
                 (A) (A) (A) (A) (A) (A) (A) (A) (A) (A) (A) (A)
                 (A) (A) (A) (A) (A) (A) (A) (A) (A) (A) (A) (A)
                 (A) (A) (A) (A) (A) (A) (A) (A) (A) (A) (A) (A)
                 (A) (A) (A) (A) (A) (A) (A) (A) (A) (A) (A) (A)
                 (A) (A) (A) (A) (A) (A) (A) (A) (A) (A) (A) (A)
                 (A) (A) (A) (A) (A) (A) (A) (A) (A) (A) (A) (A)
                 (A) (A) (A) (A) (A) (A) (A) (A) (A) (A) (A) (A)
                 (A) (A) (A) (A) (A) (A) (A) (A) (A) (A) (A) (A)
                 (A) (A) (A) (A) (A) (A) (A) (A) (A) (A) (A) (A)
                 (A) (A) (A) (A) (A) (A) (A) (A) (A) (A) (A) (A)
                 (A) (A) (A) (A) (A) (A) (A) (A) (A) (A) (A) (A)
                 (A) (A) (A) (A) (A) (A) (A) (A) (A) (A) (A) (A)
                 (A) (A) (A) (A) (A) (A) (A) (A) (A) (A) (A) (A)
                 (A) (A) (A) (A) (A) (A) (A) (A) (A) (A) (A) (A)
                 (A) (A) (A) (A) (A) (A) (A) (A) (A) (A) (A) (A)
                 (A) (A) (A) (A) (A) (A) (A) (A) (A) (A) (A) (A)
                 (A) (A) (A) (A) (A) (A) (A) (A) (A) (A) (A) (A)
                 (A) (A) (A) (A) (A) (A) (A) (A) (A) (A) (A) (A)
                 (A) (A) (A)
 The electronic state of the initial guess is 1-A.
 Leave Link  401 at Tue Jul  5 03:48:22 2016, MaxMem=   33554432 cpu:       5.7
 (Enter /home/kanhaya91/Software/g09/l502.exe)
 Closed shell SCF:
 Requested convergence on RMS density matrix=1.00D-06 within 128 cycles.
 Requested convergence on MAX density matrix=1.00D-04.
 Requested convergence on             energy=1.00D-04.
 No special actions if energy rises.
 Using DIIS extrapolation, IDIIS=  1040.
 Integral symmetry usage will be decided dynamically.
 IEnd=      377834 IEndB=      377834 NGot=    33554432 MDV=    33311919
 LenX=    33311919 LenY=    33193142
 Fock matrices will be formed incrementally for  20 cycles.
 Integral accuracy reduced to 1.0D-05 until final iterations.

 Cycle   1  Pass 0  IDiag  1:
 FoFCou: FMM=F IPFlag=           0 FMFlag=      100000 FMFlg1=           0
         NFxFlg=           0 DoJE=F BraDBF=F KetDBF=F FulRan=T
         Omega=  0.000000  0.000000  1.000000  0.000000  0.000000 ICntrl=       0 IOpCl=  0
         NMat0=    1 NMatS0=    1 NMatT0=    0 NMatD0=    1 NMtDS0=    0 NMtDT0=    0
         I1Cent=           0 NGrid=           0.
 Symmetry not used in FoFCou.
 E= -983.665613099197    
 DIIS: error= 4.36D-02 at cycle   1 NSaved=   1.
 NSaved= 1 IEnMin= 1 EnMin= -983.665613099197     IErMin= 1 ErrMin= 4.36D-02
 ErrMax= 4.36D-02 EMaxC= 1.00D-01 BMatC= 1.47D+00 BMatP= 1.47D+00
 IDIUse=3 WtCom= 5.64D-01 WtEn= 4.36D-01
 Coeff-Com:  0.100D+01
 Coeff-En:   0.100D+01
 Coeff:      0.100D+01
 Gap=     0.585 Goal=   None    Shift=    0.000
 GapD=    0.585 DampG=2.000 DampE=0.500 DampFc=1.0000 IDamp=-1.
 RMSDP=3.58D-03 MaxDP=1.15D-01              OVMax= 1.16D-01

 Cycle   2  Pass 0  IDiag  1:
 RMSU=  2.49D-03    CP:  9.67D-01
 E= -984.411897009302     Delta-E=       -0.746283910105 Rises=F Damp=F
 DIIS: error= 1.20D-02 at cycle   2 NSaved=   2.
 NSaved= 2 IEnMin= 2 EnMin= -984.411897009302     IErMin= 2 ErrMin= 1.20D-02
 ErrMax= 1.20D-02 EMaxC= 1.00D-01 BMatC= 1.88D-01 BMatP= 1.47D+00
 IDIUse=3 WtCom= 8.80D-01 WtEn= 1.20D-01
 Coeff-Com:  0.195D+00 0.805D+00
 Coeff-En:   0.000D+00 0.100D+01
 Coeff:      0.172D+00 0.828D+00
 Gap=     0.610 Goal=   None    Shift=    0.000
 RMSDP=1.37D-03 MaxDP=4.87D-02 DE=-7.46D-01 OVMax= 4.41D-02

 Cycle   3  Pass 0  IDiag  1:
 RMSU=  7.62D-04    CP:  9.73D-01  7.63D-01
 E= -984.538849434223     Delta-E=       -0.126952424921 Rises=F Damp=F
 DIIS: error= 4.71D-03 at cycle   3 NSaved=   3.
 NSaved= 3 IEnMin= 3 EnMin= -984.538849434223     IErMin= 3 ErrMin= 4.71D-03
 ErrMax= 4.71D-03 EMaxC= 1.00D-01 BMatC= 2.14D-02 BMatP= 1.88D-01
 IDIUse=3 WtCom= 9.53D-01 WtEn= 4.71D-02
 Coeff-Com: -0.149D-01 0.217D+00 0.797D+00
 Coeff-En:   0.000D+00 0.000D+00 0.100D+01
 Coeff:     -0.142D-01 0.207D+00 0.807D+00
 Gap=     0.559 Goal=   None    Shift=    0.000
 RMSDP=3.85D-04 MaxDP=1.97D-02 DE=-1.27D-01 OVMax= 2.15D-02

 Cycle   4  Pass 0  IDiag  1:
 RMSU=  2.04D-04    CP:  9.73D-01  8.25D-01  8.84D-01
 E= -984.553899291875     Delta-E=       -0.015049857652 Rises=F Damp=F
 DIIS: error= 1.16D-03 at cycle   4 NSaved=   4.
 NSaved= 4 IEnMin= 4 EnMin= -984.553899291875     IErMin= 4 ErrMin= 1.16D-03
 ErrMax= 1.16D-03 EMaxC= 1.00D-01 BMatC= 1.67D-03 BMatP= 2.14D-02
 IDIUse=3 WtCom= 9.88D-01 WtEn= 1.16D-02
 Coeff-Com: -0.115D-01 0.342D-01 0.272D+00 0.705D+00
 Coeff-En:   0.000D+00 0.000D+00 0.000D+00 0.100D+01
 Coeff:     -0.113D-01 0.338D-01 0.269D+00 0.708D+00
 Gap=     0.558 Goal=   None    Shift=    0.000
 RMSDP=1.27D-04 MaxDP=4.50D-03 DE=-1.50D-02 OVMax= 4.85D-03

 Cycle   5  Pass 0  IDiag  1:
 RMSU=  5.61D-05    CP:  9.72D-01  8.25D-01  9.61D-01  8.28D-01
 E= -984.555385985967     Delta-E=       -0.001486694092 Rises=F Damp=F
 DIIS: error= 4.45D-04 at cycle   5 NSaved=   5.
 NSaved= 5 IEnMin= 5 EnMin= -984.555385985967     IErMin= 5 ErrMin= 4.45D-04
 ErrMax= 4.45D-04 EMaxC= 1.00D-01 BMatC= 6.06D-05 BMatP= 1.67D-03
 IDIUse=3 WtCom= 9.96D-01 WtEn= 4.45D-03
 Coeff-Com:  0.213D-02-0.180D-01-0.839D-01-0.652D-01 0.116D+01
 Coeff-En:   0.000D+00 0.000D+00 0.000D+00 0.000D+00 0.100D+01
 Coeff:      0.212D-02-0.179D-01-0.835D-01-0.650D-01 0.116D+01
 Gap=     0.559 Goal=   None    Shift=    0.000
 RMSDP=5.57D-05 MaxDP=1.65D-03 DE=-1.49D-03 OVMax= 4.52D-03

 Cycle   6  Pass 0  IDiag  1:
 RMSU=  1.83D-05    CP:  9.72D-01  8.26D-01  9.88D-01  9.32D-01  1.33D+00
 E= -984.555558905460     Delta-E=       -0.000172919493 Rises=F Damp=F
 DIIS: error= 1.48D-04 at cycle   6 NSaved=   6.
 NSaved= 6 IEnMin= 6 EnMin= -984.555558905460     IErMin= 6 ErrMin= 1.48D-04
 ErrMax= 1.48D-04 EMaxC= 1.00D-01 BMatC= 1.33D-05 BMatP= 6.06D-05
 IDIUse=3 WtCom= 9.99D-01 WtEn= 1.48D-03
 Coeff-Com:  0.166D-02-0.810D-02-0.477D-01-0.104D+00 0.264D+00 0.895D+00
 Coeff-En:   0.000D+00 0.000D+00 0.000D+00 0.000D+00 0.000D+00 0.100D+01
 Coeff:      0.165D-02-0.809D-02-0.476D-01-0.104D+00 0.263D+00 0.895D+00
 Gap=     0.559 Goal=   None    Shift=    0.000
 RMSDP=2.19D-05 MaxDP=5.76D-04 DE=-1.73D-04 OVMax= 1.42D-03

 Cycle   7  Pass 0  IDiag  1:
 RMSU=  6.14D-06    CP:  9.72D-01  8.25D-01  9.97D-01  9.52D-01  1.53D+00
                    CP:  1.15D+00
 E= -984.555585232287     Delta-E=       -0.000026326828 Rises=F Damp=F
 DIIS: error= 5.62D-05 at cycle   7 NSaved=   7.
 NSaved= 7 IEnMin= 7 EnMin= -984.555585232287     IErMin= 7 ErrMin= 5.62D-05
 ErrMax= 5.62D-05 EMaxC= 1.00D-01 BMatC= 1.65D-06 BMatP= 1.33D-05
 IDIUse=1 WtCom= 1.00D+00 WtEn= 0.00D+00
 Coeff-Com: -0.367D-03 0.306D-02 0.167D-01 0.640D-02-0.158D+00-0.883D-01
 Coeff-Com:  0.122D+01
 Coeff:     -0.367D-03 0.306D-02 0.167D-01 0.640D-02-0.158D+00-0.883D-01
 Coeff:      0.122D+01
 Gap=     0.559 Goal=   None    Shift=    0.000
 RMSDP=1.08D-05 MaxDP=3.57D-04 DE=-2.63D-05 OVMax= 8.44D-04

 Cycle   8  Pass 0  IDiag  1:
 RMSU=  2.65D-06    CP:  9.72D-01  8.25D-01  1.00D+00  9.55D-01  1.61D+00
                    CP:  1.36D+00  1.48D+00
 E= -984.555590230405     Delta-E=       -0.000004998117 Rises=F Damp=F
 DIIS: error= 2.17D-05 at cycle   8 NSaved=   8.
 NSaved= 8 IEnMin= 8 EnMin= -984.555590230405     IErMin= 8 ErrMin= 2.17D-05
 ErrMax= 2.17D-05 EMaxC= 1.00D-01 BMatC= 2.83D-07 BMatP= 1.65D-06
 IDIUse=1 WtCom= 1.00D+00 WtEn= 0.00D+00
 Coeff-Com: -0.308D-03 0.184D-02 0.109D-01 0.135D-01-0.665D-01-0.152D+00
 Coeff-Com:  0.277D+00 0.915D+00
 Coeff:     -0.308D-03 0.184D-02 0.109D-01 0.135D-01-0.665D-01-0.152D+00
 Coeff:      0.277D+00 0.915D+00
 Gap=     0.559 Goal=   None    Shift=    0.000
 RMSDP=3.55D-06 MaxDP=1.22D-04 DE=-5.00D-06 OVMax= 2.80D-04

 Initial convergence to 1.0D-05 achieved.  Increase integral accuracy.
 Cycle   9  Pass 1  IDiag  1:
 E= -984.555601843016     Delta-E=       -0.000011612612 Rises=F Damp=F
 DIIS: error= 1.02D-05 at cycle   1 NSaved=   1.
 NSaved= 1 IEnMin= 1 EnMin= -984.555601843016     IErMin= 1 ErrMin= 1.02D-05
 ErrMax= 1.02D-05 EMaxC= 1.00D-01 BMatC= 7.17D-08 BMatP= 7.17D-08
 IDIUse=1 WtCom= 1.00D+00 WtEn= 0.00D+00
 Coeff-Com:  0.100D+01
 Coeff:      0.100D+01
 Gap=     0.559 Goal=   None    Shift=    0.000
 RMSDP=3.55D-06 MaxDP=1.22D-04 DE=-1.16D-05 OVMax= 4.69D-05

 Cycle  10  Pass 1  IDiag  1:
 RMSU=  2.18D-06    CP:  1.00D+00
 E= -984.555601927119     Delta-E=       -0.000000084103 Rises=F Damp=F
 DIIS: error= 5.04D-06 at cycle   2 NSaved=   2.
 NSaved= 2 IEnMin= 2 EnMin= -984.555601927119     IErMin= 2 ErrMin= 5.04D-06
 ErrMax= 5.04D-06 EMaxC= 1.00D-01 BMatC= 1.19D-08 BMatP= 7.17D-08
 IDIUse=1 WtCom= 1.00D+00 WtEn= 0.00D+00
 Coeff-Com:  0.128D+00 0.872D+00
 Coeff:      0.128D+00 0.872D+00
 Gap=     0.559 Goal=   None    Shift=    0.000
 RMSDP=4.63D-07 MaxDP=2.79D-05 DE=-8.41D-08 OVMax= 3.65D-05

 SCF Done:  E(RHF) =  -984.555601927     A.U. after   10 cycles
             Convg  =    0.4627D-06             -V/T =  2.0015
 KE= 9.830832604732D+02 PE=-5.776222381932D+03 EE= 2.074536640901D+03
 Leave Link  502 at Tue Jul  5 03:51:51 2016, MaxMem=   33554432 cpu:     209.1
 (Enter /home/kanhaya91/Software/g09/l801.exe)
 Range of M.O.s used for correlation:     1   344
 NBasis=   344 NAE=    77 NBE=    77 NFC=     0 NFV=     0
 NROrb=    344 NOA=    77 NOB=    77 NVA=   267 NVB=   267
 Leave Link  801 at Tue Jul  5 03:51:52 2016, MaxMem=   33554432 cpu:       0.1
 (Enter /home/kanhaya91/Software/g09/l1101.exe)
 Using compressed storage, NAtomX=    42.
 Will process  43 centers per pass.
 Leave Link 1101 at Tue Jul  5 03:51:53 2016, MaxMem=   33554432 cpu:       1.0
 (Enter /home/kanhaya91/Software/g09/l1102.exe)
 Symmetrizing basis deriv contribution to polar:
 IMax=3 JMax=2 DiffMx= 0.00D+00
 Leave Link 1102 at Tue Jul  5 03:51:53 2016, MaxMem=   33554432 cpu:       0.1
 (Enter /home/kanhaya91/Software/g09/l1110.exe)
 Forming Gx(P) for the SCF density, NAtomX=    42.
 Integral derivatives from FoFDir/FoFCou, PRISM(SPDF).
 Do as many integral derivatives as possible in FoFDir.
 G2DrvN: MDV=      33553992.
 G2DrvN: will do    43 centers at a time, making    1 passes doing MaxLOS=2.
 Calling FoFCou, ICntrl=  3107 FMM=F I1Cent=   0 AccDes= 0.00D+00.
 FoFCou: FMM=F IPFlag=           0 FMFlag=      100000 FMFlg1=           0
         NFxFlg=           0 DoJE=F BraDBF=F KetDBF=F FulRan=T
         Omega=  0.000000  0.000000  1.000000  0.000000  0.000000 ICntrl=    3107 IOpCl=  0
         NMat0=    1 NMatS0=    1 NMatT0=    0 NMatD0=    1 NMtDS0=    0 NMtDT0=    0
         I1Cent=           0 NGrid=           0.
 Symmetry not used in FoFCou.
 FoFDir/FoFCou used for L=0 through L=2.
 End of G2Drv Frequency-dependent properties file   721 does not exist.
 End of G2Drv Frequency-dependent properties file   722 does not exist.
 Leave Link 1110 at Tue Jul  5 03:56:22 2016, MaxMem=   33554432 cpu:     268.7
 (Enter /home/kanhaya91/Software/g09/l1002.exe)
 Minotr:  Closed shell wavefunction.
          IDoAtm=111111111111111111111111111111111111111111
          Direct CPHF calculation.
          Differentiating once with respect to nuclear coordinates.
          Requested convergence is 1.0D-06 RMS, and 1.0D-05 maximum.
          Secondary convergence is 1.0D-12 RMS, and 1.0D-12 maximum.
          NewPWx=T KeepS1=F KeepF1=F KeepIn=T MapXYZ=F SortEE=F KeepMc=T.
          MDV=      33554008 using IRadAn=       2.
          Solving linear equations simultaneously, MaxMat=       0.
 Integrals replicated using symmetry in FoFDir.
 MinBra= 0 MaxBra= 2 Meth= 1.
 IRaf=       0 NMat= 129 IRICut=     322 DoRegI=T DoRafI=T ISym2E= 2 JSym2E=2.
          There are   129 degrees of freedom in the 1st order CPHF.  IDoFFX=5.
    123 vectors produced by pass  0 Test12= 2.06D-10 1.00D-07 XBig12= 9.65D-02 4.67D-02.
 AX will form   123 AO Fock derivatives at one time.
    123 vectors produced by pass  1 Test12= 2.06D-10 1.00D-07 XBig12= 7.11D-03 2.62D-02.
    123 vectors produced by pass  2 Test12= 2.06D-10 1.00D-07 XBig12= 1.28D-04 2.07D-03.
    123 vectors produced by pass  3 Test12= 2.06D-10 1.00D-07 XBig12= 1.12D-06 1.32D-04.
    123 vectors produced by pass  4 Test12= 2.06D-10 1.00D-07 XBig12= 6.88D-09 9.15D-06.
     32 vectors produced by pass  5 Test12= 2.06D-10 1.00D-07 XBig12= 3.85D-11 4.85D-07.
 Inverted reduced A of dimension   647 with in-core refinement.
 End of Minotr Frequency-dependent properties file   721 does not exist.
 End of Minotr Frequency-dependent properties file   722 does not exist.
 Leave Link 1002 at Tue Jul  5 04:45:56 2016, MaxMem=   33554432 cpu:    2970.6
 (Enter /home/kanhaya91/Software/g09/l601.exe)
 Copying SCF densities to generalized density rwf, IOpCl= 0 IROHF=0.

 **********************************************************************

            Population analysis using the SCF density.

 **********************************************************************

 Orbital symmetries:
       Occupied  (A) (A) (A) (A) (A) (A) (A) (A) (A) (A) (A) (A)
                 (A) (A) (A) (A) (A) (A) (A) (A) (A) (A) (A) (A)
                 (A) (A) (A) (A) (A) (A) (A) (A) (A) (A) (A) (A)
                 (A) (A) (A) (A) (A) (A) (A) (A) (A) (A) (A) (A)
                 (A) (A) (A) (A) (A) (A) (A) (A) (A) (A) (A) (A)
                 (A) (A) (A) (A) (A) (A) (A) (A) (A) (A) (A) (A)
                 (A) (A) (A) (A) (A)
       Virtual   (A) (A) (A) (A) (A) (A) (A) (A) (A) (A) (A) (A)
                 (A) (A) (A) (A) (A) (A) (A) (A) (A) (A) (A) (A)
                 (A) (A) (A) (A) (A) (A) (A) (A) (A) (A) (A) (A)
                 (A) (A) (A) (A) (A) (A) (A) (A) (A) (A) (A) (A)
                 (A) (A) (A) (A) (A) (A) (A) (A) (A) (A) (A) (A)
                 (A) (A) (A) (A) (A) (A) (A) (A) (A) (A) (A) (A)
                 (A) (A) (A) (A) (A) (A) (A) (A) (A) (A) (A) (A)
                 (A) (A) (A) (A) (A) (A) (A) (A) (A) (A) (A) (A)
                 (A) (A) (A) (A) (A) (A) (A) (A) (A) (A) (A) (A)
                 (A) (A) (A) (A) (A) (A) (A) (A) (A) (A) (A) (A)
                 (A) (A) (A) (A) (A) (A) (A) (A) (A) (A) (A) (A)
                 (A) (A) (A) (A) (A) (A) (A) (A) (A) (A) (A) (A)
                 (A) (A) (A) (A) (A) (A) (A) (A) (A) (A) (A) (A)
                 (A) (A) (A) (A) (A) (A) (A) (A) (A) (A) (A) (A)
                 (A) (A) (A) (A) (A) (A) (A) (A) (A) (A) (A) (A)
                 (A) (A) (A) (A) (A) (A) (A) (A) (A) (A) (A) (A)
                 (A) (A) (A) (A) (A) (A) (A) (A) (A) (A) (A) (A)
                 (A) (A) (A) (A) (A) (A) (A) (A) (A) (A) (A) (A)
                 (A) (A) (A) (A) (A) (A) (A) (A) (A) (A) (A) (A)
                 (A) (A) (A) (A) (A) (A) (A) (A) (A) (A) (A) (A)
                 (A) (A) (A) (A) (A) (A) (A) (A) (A) (A) (A) (A)
                 (A) (A) (A) (A) (A) (A) (A) (A) (A) (A) (A) (A)
                 (A) (A) (A)
 The electronic state is 1-A.
 Alpha  occ. eigenvalues --  -20.54692 -20.53011 -20.52500 -20.52209 -15.61131
 Alpha  occ. eigenvalues --  -15.58981 -15.58911 -15.58270 -11.37181 -11.35378
 Alpha  occ. eigenvalues --  -11.34622 -11.34552 -11.29238 -11.27653 -11.27561
 Alpha  occ. eigenvalues --  -11.25623 -11.23966 -11.23768 -11.21319 -11.20740
 Alpha  occ. eigenvalues --   -1.41598  -1.40041  -1.39577  -1.38961  -1.26513
 Alpha  occ. eigenvalues --   -1.24761  -1.23666  -1.22519  -1.07144  -1.04694
 Alpha  occ. eigenvalues --   -1.02404  -1.00378  -0.95978  -0.91143  -0.89267
 Alpha  occ. eigenvalues --   -0.85837  -0.82121  -0.79932  -0.79341  -0.78075
 Alpha  occ. eigenvalues --   -0.75685  -0.71820  -0.69493  -0.69274  -0.67465
 Alpha  occ. eigenvalues --   -0.66256  -0.64486  -0.64100  -0.62573  -0.62429
 Alpha  occ. eigenvalues --   -0.61820  -0.61048  -0.59985  -0.59735  -0.59350
 Alpha  occ. eigenvalues --   -0.58301  -0.56879  -0.56152  -0.55502  -0.55128
 Alpha  occ. eigenvalues --   -0.54618  -0.54214  -0.53936  -0.52706  -0.52125
 Alpha  occ. eigenvalues --   -0.51758  -0.50649  -0.50512  -0.48517  -0.45275
 Alpha  occ. eigenvalues --   -0.44356  -0.43503  -0.42009  -0.39909  -0.39455
 Alpha  occ. eigenvalues --   -0.38731  -0.38284
 Alpha virt. eigenvalues --    0.17603   0.18318   0.18958   0.20040   0.20768
 Alpha virt. eigenvalues --    0.22173   0.24604   0.25364   0.27048   0.27936
 Alpha virt. eigenvalues --    0.28119   0.29108   0.29386   0.30006   0.30723
 Alpha virt. eigenvalues --    0.31507   0.31758   0.32528   0.32766   0.33174
 Alpha virt. eigenvalues --    0.33249   0.33843   0.34446   0.34842   0.35544
 Alpha virt. eigenvalues --    0.36910   0.37503   0.38109   0.38781   0.40338
 Alpha virt. eigenvalues --    0.40564   0.41557   0.42618   0.43716   0.45782
 Alpha virt. eigenvalues --    0.47232   0.48628   0.50686   0.51127   0.53832
 Alpha virt. eigenvalues --    0.57135   0.59749   0.62678   0.64299   0.66746
 Alpha virt. eigenvalues --    0.70919   0.71187   0.72601   0.72784   0.73665
 Alpha virt. eigenvalues --    0.74140   0.74957   0.75246   0.76283   0.76674
 Alpha virt. eigenvalues --    0.77576   0.78756   0.79172   0.80350   0.81161
 Alpha virt. eigenvalues --    0.82645   0.83453   0.84279   0.87240   0.87775
 Alpha virt. eigenvalues --    0.88700   0.90353   0.91141   0.92768   0.93688
 Alpha virt. eigenvalues --    0.94418   0.95168   0.95578   0.96044   0.98452
 Alpha virt. eigenvalues --    1.00127   1.00505   1.01224   1.01952   1.03190
 Alpha virt. eigenvalues --    1.04257   1.04775   1.06294   1.06668   1.08014
 Alpha virt. eigenvalues --    1.08618   1.08965   1.09718   1.10986   1.11835
 Alpha virt. eigenvalues --    1.12527   1.13398   1.13847   1.14711   1.15446
 Alpha virt. eigenvalues --    1.16008   1.16641   1.16986   1.17411   1.17834
 Alpha virt. eigenvalues --    1.18500   1.18908   1.19490   1.20384   1.20599
 Alpha virt. eigenvalues --    1.21449   1.22084   1.22669   1.23916   1.24348
 Alpha virt. eigenvalues --    1.24984   1.25557   1.25939   1.27652   1.28613
 Alpha virt. eigenvalues --    1.29860   1.31603   1.32521   1.32731   1.37021
 Alpha virt. eigenvalues --    1.38283   1.39398   1.39913   1.40857   1.43147
 Alpha virt. eigenvalues --    1.43506   1.47200   1.48391   1.49988   1.51291
 Alpha virt. eigenvalues --    1.52342   1.53393   1.55184   1.59653   1.62204
 Alpha virt. eigenvalues --    1.62821   1.65015   1.65157   1.67330   1.68929
 Alpha virt. eigenvalues --    1.71026   1.73365   1.74913   1.75848   1.76056
 Alpha virt. eigenvalues --    1.78243   1.80128   1.81130   1.85172   1.86819
 Alpha virt. eigenvalues --    1.88170   1.88736   1.93255   1.94882   1.97453
 Alpha virt. eigenvalues --    1.98677   1.99713   2.02176   2.04413   2.06885
 Alpha virt. eigenvalues --    2.07202   2.07759   2.09091   2.09587   2.11786
 Alpha virt. eigenvalues --    2.12285   2.13422   2.15310   2.16254   2.17326
 Alpha virt. eigenvalues --    2.17897   2.18521   2.20205   2.21962   2.24136
 Alpha virt. eigenvalues --    2.24744   2.25053   2.26059   2.26377   2.28466
 Alpha virt. eigenvalues --    2.28862   2.29362   2.31753   2.35142   2.35995
 Alpha virt. eigenvalues --    2.36424   2.36879   2.39317   2.39615   2.41066
 Alpha virt. eigenvalues --    2.42316   2.43010   2.43316   2.45430   2.47098
 Alpha virt. eigenvalues --    2.48694   2.50835   2.54497   2.55359   2.56330
 Alpha virt. eigenvalues --    2.56585   2.60025   2.60505   2.61759   2.62648
 Alpha virt. eigenvalues --    2.63241   2.65699   2.66448   2.67213   2.69268
 Alpha virt. eigenvalues --    2.71181   2.72251   2.73285   2.73720   2.74920
 Alpha virt. eigenvalues --    2.79013   2.80657   2.82132   2.83545   2.86911
 Alpha virt. eigenvalues --    2.88070   2.90821   2.93406   2.95534   2.96776
 Alpha virt. eigenvalues --    2.98708   3.00940   3.02257   3.02921   3.05744
 Alpha virt. eigenvalues --    3.09055   3.10927   3.12808   3.13977   3.15612
 Alpha virt. eigenvalues --    3.21367   3.28551   3.30682   3.35523   3.38879
 Alpha virt. eigenvalues --    3.40384   3.42566   3.44688   3.51614   3.55609
 Alpha virt. eigenvalues --    3.56409   3.60022   4.38446   4.38970   4.47522
 Alpha virt. eigenvalues --    4.50861   4.54137   4.57252   4.58950   4.62596
 Alpha virt. eigenvalues --    4.63644   4.65367   4.68318   4.72336   4.79021
 Alpha virt. eigenvalues --    4.81004   4.83244   4.86491   4.93983   5.07901
 Alpha virt. eigenvalues --    5.10957   5.16656
          Condensed to atoms (all electrons):
              1          2          3          4          5          6
     1  H    0.398678   0.375311  -0.018624  -0.015339  -0.026177  -0.000122
     2  C    0.375311   5.276253   0.375654   0.377593   0.368212  -0.067430
     3  H   -0.018624   0.375654   0.533130  -0.024003  -0.041992   0.002687
     4  H   -0.015339   0.377593  -0.024003   0.485280  -0.027710  -0.000165
     5  C   -0.026177   0.368212  -0.041992  -0.027710   4.190989   0.549802
     6  O   -0.000122  -0.067430   0.002687  -0.000165   0.549802   8.217462
     7  N    0.002275  -0.103541   0.004868   0.000815   0.276061  -0.103589
     8  H    0.000060   0.000998   0.001264  -0.000038  -0.017443   0.002377
     9  C   -0.000074   0.004388   0.000200  -0.000178  -0.028571   0.003316
    10  H   -0.000014   0.000354  -0.000009   0.000014   0.000624   0.007569
    11  C    0.000000  -0.000066  -0.000035   0.000012   0.003171   0.000520
    12  H    0.000000  -0.000010   0.000002   0.000001  -0.000036  -0.000010
    13  H    0.000000   0.000002   0.000000   0.000000  -0.000044   0.000001
    14  H    0.000000  -0.000015  -0.000003  -0.000001  -0.000188   0.000001
    15  C    0.000009  -0.000160  -0.000014  -0.000001  -0.002525   0.001213
    16  O    0.000000   0.000000   0.000000   0.000000   0.000015  -0.000001
    17  N    0.000006  -0.000006   0.000005  -0.000001   0.002037  -0.000965
    18  H   -0.000018  -0.000023   0.000034   0.000003   0.001096  -0.001128
    19  C    0.000000  -0.000002   0.000000   0.000000  -0.000158  -0.000093
    20  H    0.000000   0.000000   0.000000   0.000000  -0.000005   0.000005
    21  C    0.000000   0.000000   0.000000   0.000000   0.000002   0.000000
    22  H    0.000000   0.000000   0.000000   0.000000   0.000000   0.000000
[...]
    33  H    4.731317   6.851114   7.778575   6.892123   6.650249
    34  H    4.018332   5.955966   6.822138   6.232759   6.252373
    35  C    4.538613   6.203941   7.198954   5.681913   5.342504
    36  O    5.464841   7.276723   8.266496   6.791190   6.361190
    37  N    4.414332   5.717408   6.691142   4.927045   4.509409
    38  H    3.949189   4.959215   5.919197   4.089597   3.799594
    39  C    5.483633   6.649953   7.577514   5.693013   5.093993
    40  H    5.572406   6.391337   7.258688   5.268800   4.644140
    41  H    6.429697   7.601606   8.538211   6.621003   6.092123
    42  H    5.571811   6.920651   7.832809   6.071572   5.334745
                   11         12         13         14         15
    11  C    0.000000
    12  H    1.085569   0.000000
    13  H    1.081448   1.759132   0.000000
    14  H    1.085262   1.763445   1.756630   0.000000
    15  C    2.492997   2.789525   2.674080   3.442521   0.000000
    16  O    3.069632   3.514706   2.806230   4.011101   1.214365
    17  N    3.349371   3.243825   3.711570   4.299022   1.345008
    18  H    3.445088   3.194668   4.057685   4.258727   2.017869
    19  C    4.614423   4.430525   4.771195   5.630609   2.447746
    20  H    4.624641   4.424798   4.553632   5.698027   2.654387
    21  C    5.526512   5.088424   5.833619   6.492858   3.708273
    22  H    5.842608   5.437031   6.307368   6.716472   4.044923
    23  H    6.468197   6.038425   6.670512   7.469665   4.548916
    24  H    5.276926   4.651055   5.611379   6.218734   3.904098
    25  C    5.618089   5.656250   5.706695   6.586372   3.164883
    26  O    6.645707   6.646634   6.618560   7.651909   4.226263
    27  N    5.617151   5.843392   5.807791   6.456489   3.177612
    28  H    4.942415   5.219052   5.261881   5.697990   2.657273
    29  C    6.829532   7.170390   6.957954   7.605208   4.436752
    30  H    7.599929   7.848301   7.684170   8.442953   5.134844
    31  C    7.425521   7.792302   7.724563   8.062963   5.223746
    32  H    6.887182   7.339766   7.249357   7.413189   4.905241
    33  H    8.378835   8.798719   8.626178   8.992898   6.185673
    34  H    7.697941   7.933141   8.096973   8.349718   5.510233
    35  C    6.981916   7.501215   6.923590   7.709785   4.731861
    36  O    8.102313   8.667803   8.022561   8.780935   5.915626
    37  N    6.081806   6.680086   5.877690   6.811543   3.994430
    38  H    5.194627   5.738301   4.995511   5.989268   3.045960
    39  C    6.673255   7.392488   6.290144   7.314257   4.924232
    40  H    6.054761   6.814626   5.545648   6.671251   4.588508
    41  H    7.546868   8.206183   7.098914   8.244271   5.713196
    42  H    7.119714   7.923299   6.804530   7.639211   5.517639
                   16         17         18         19         20
    16  O    0.000000
    17  N    2.250952   0.000000
    18  H    3.119868   0.993516   0.000000
    19  C    2.788088   1.450950   2.121669   0.000000
    20  H    2.629549   2.064291   2.875678   1.080729   0.000000
    21  C    4.251622   2.437410   2.540423   1.527600   2.143819
    22  H    4.759033   2.714133   2.496416   2.170204   3.052894
    23  H    4.889007   3.369192   3.595438   2.146647   2.471349
    24  H    4.537069   2.689398   2.636562   2.160169   2.478664
    25  C    3.179256   2.515432   3.173771   1.533666   2.086319
    26  O    4.024569   3.609271   4.284445   2.365001   2.535419
    27  N    3.284898   2.790233   3.293513   2.469463   3.181317
    28  H    3.035032   2.377301   2.721535   2.604179   3.414634
    29  C    4.336873   4.223073   4.703766   3.838488   4.429550
    30  H    4.975555   4.756515   5.260706   4.052765   4.564736
    31  C    5.364820   4.964561   5.185166   4.840663   5.617710
    32  H    5.139758   4.817744   4.958631   5.013017   5.814562
    33  H    6.210124   5.998648   6.257467   5.806184   6.516353
    34  H    5.825668   4.997491   5.062210   4.802629   5.692182
    35  C    4.287601   4.924418   5.563487   4.658122   4.989192
    36  O    5.435444   6.124564   6.733166   5.825437   6.143295
    37  N    3.307884   4.494156   5.259486   4.388782   4.511853
    38  H    2.338540   3.583709   4.402186   3.550811   3.634886
    39  C    4.030276   5.655598   6.462505   5.614299   5.555903
    40  H    3.571255   5.503328   6.346112   5.590365   5.394623
    41  H    4.750274   6.335967   7.190749   6.074641   5.919547
    42  H    4.743952   6.296398   7.014845   6.397626   6.450860
                   21         22         23         24         25
    21  C    0.000000
    22  H    1.086794   0.000000
    23  H    1.080739   1.756221   0.000000
    24  H    1.084810   1.763595   1.761341   0.000000
    25  C    2.502992   2.802153   2.677564   3.450512   0.000000
    26  O    2.992639   3.419283   2.698308   3.948736   1.216937
    27  N    3.444105   3.388293   3.807050   4.373634   1.348867
    28  H    3.592418   3.417584   4.199647   4.382512   2.036088
    29  C    4.718541   4.589833   4.885228   5.715821   2.454860
    30  H    4.734749   4.653897   4.659737   5.790433   2.538828
    31  C    5.504577   5.085802   5.774306   6.482903   3.644956
    32  H    5.779333   5.333561   6.226995   6.661536   4.041062
    33  H    6.474348   6.074013   6.647401   7.482128   4.501764
    34  H    5.166197   4.580176   5.406275   6.147959   3.718019
    35  C    5.811451   5.861984   5.980401   6.734872   3.354751
    36  O    6.911320   6.913127   7.000943   7.870757   4.453275
    37  N    5.760873   5.992073   6.029148   6.546459   3.385157
    38  H    4.995778   5.303397   5.350709   5.701637   2.789386
    39  C    7.048640   7.364500   7.292362   7.766312   4.719407
    40  H    7.091670   7.506812   7.404556   7.683462   4.963740
    41  H    7.451892   7.829240   7.546659   8.206329   5.068158
    42  H    7.812057   8.018493   8.114368   8.548014   5.473768
                   26         27         28         29         30
    26  O    0.000000
    27  N    2.267369   0.000000
    28  H    3.144151   0.996612   0.000000
    29  C    2.820286   1.450160   2.106133   0.000000
    30  H    2.430332   2.048874   2.922155   1.079985   0.000000
    31  C    4.141249   2.444923   2.624215   1.528664   2.145734
    32  H    4.766132   2.710146   2.489780   2.169084   3.051961
    33  H    4.804551   3.376336   3.648648   2.150623   2.490099
    34  H    4.199538   2.696329   2.860518   2.154281   2.462344
    35  C    3.590488   2.507872   2.988015   1.533717   2.096677
    36  O    4.515763   3.612339   4.090816   2.369888   2.651111
    37  N    3.750614   2.765159   3.059846   2.466328   3.094759
    38  H    3.342750   2.354220   2.545341   2.614245   3.276598
    39  C    4.956089   4.205460   4.440074   3.818844   4.344835
    40  H    5.284057   4.599446   4.716905   4.523047   5.094246
    41  H    5.044822   4.721930   5.139097   4.185396   4.463434
    42  H    5.794147   4.742806   4.856278   4.187129   4.812907
                   31         32         33         34         35
    31  C    0.000000
    32  H    1.085684   0.000000
    33  H    1.080486   1.758674   0.000000
    34  H    1.084612   1.759293   1.764935   0.000000
    35  C    2.506843   2.815960   2.679812   3.448617   0.000000
    36  O    2.892741   3.273059   2.580553   3.876073   1.209561
    37  N    3.558883   3.593566   3.913104   4.458252   1.340959
    38  H    3.795072   3.766408   4.379299   4.545933   2.034464
    39  C    4.785619   4.743169   4.937416   5.764420   2.423600
    40  H    5.544503   5.399707   5.830734   6.474115   3.295072
    41  H    5.255237   5.401708   5.275725   6.209004   2.761710
    42  H    4.844667   4.663262   4.854405   5.895521   2.733689
                   36         37         38         39         40
    36  O    0.000000
    37  N    2.241682   0.000000
    38  H    3.125146   0.993932   0.000000
    39  C    2.749265   1.445229   2.108607   0.000000
    40  H    3.795109   2.059493   2.266966   1.081612   0.000000
    41  H    2.816775   2.097637   2.797830   1.083532   1.763557
    42  H    2.743836   2.091031   2.853336   1.082661   1.763371
                   41         42
    41  H    0.000000
    42  H    1.754405   0.000000
 Stoichiometry    C12H22N4O4
 Framework group  C1[X(C12H22N4O4)]
 Deg. of freedom   120
 Full point group                 C1      NOp   1
 Largest Abelian subgroup         C1      NOp   1
 Largest concise Abelian subgroup C1      NOp   1
                         Standard orientation:                         
 ---------------------------------------------------------------------
 Center     Atomic      Atomic             Coordinates (Angstroms)
 Number     Number       Type             X           Y           Z
 ---------------------------------------------------------------------
      1          1           0        2.738474   -2.265274   -2.946018
      2          6           0        3.341132   -2.144432   -2.057611
      3          1           0        4.209770   -1.536474   -2.282748
      4          1           0        3.682723   -3.125164   -1.741258
      5          6           0        2.488249   -1.548374   -0.961295
      6          8           0        1.279666   -1.704622   -0.914854
      7          7           0        3.150215   -0.816908   -0.018006
      8          1           0        4.145442   -0.846510   -0.026143
      9          6           0        2.509903   -0.482436    1.245177
     10          1           0        2.044882   -1.366431    1.661673
     11          6           0        3.548831    0.057142    2.228286
     12          1           0        4.028936    0.949598    1.839079
     13          1           0        3.068508    0.305695    3.164791
     14          1           0        4.311310   -0.690080    2.423423
     15          6           0        1.369703    0.524959    1.111333
     16          8           0        0.535666    0.593175    1.991339
     17          7           0        1.362817    1.324433    0.029741
     18          1           0        2.059702    1.188167   -0.665139
     19          6           0        0.335183    2.326332   -0.183381
     20          1           0        0.203124    2.879468    0.735627
     21          6           0        0.767483    3.283406   -1.292745
     22          1           0        0.909687    2.755080   -2.231772
     23          1           0        0.005273    4.035347   -1.439773
     24          1           0        1.697718    3.774489   -1.027579
     25          6           0       -1.056786    1.764824   -0.498440
     26          8           0       -2.005172    2.526364   -0.458984
     27          7           0       -1.148169    0.459529   -0.825999
     28          1           0       -0.328130   -0.106797   -0.832721
     29          6           0       -2.417188   -0.192210   -1.086369
     30          1           0       -3.114618    0.574579   -1.389671
     31          6           0       -2.266071   -1.217259   -2.210315
     32          1           0       -1.535449   -1.976524   -1.948743
     33          1           0       -3.214207   -1.701435   -2.394873
     34          1           0       -1.934823   -0.723735   -3.117559
     35          6           0       -3.051528   -0.855180    0.142602
     36          8           0       -4.099159   -1.446290    0.015731
     37          7           0       -2.409194   -0.753246    1.315286
     38          1           0       -1.569244   -0.226613    1.386298
     39          6           0       -2.975745   -1.312638    2.521431
     40          1           0       -2.282050   -1.142483    3.333662
     41          1           0       -3.924460   -0.848133    2.762713
     42          1           0       -3.139254   -2.377239    2.411676
 ---------------------------------------------------------------------
 Rotational constants (GHZ):      0.4122749      0.2330253      0.2181019
 Leave Link  202 at Tue Jul  5 10:12:35 2016, MaxMem=   33554432 cpu:       0.0
 (Enter /home/kanhaya91/Software/g09/l301.exe)
 Standard basis: 6-31G(d) (6D, 7F)
 Ernie: Thresh=  0.10000D-02 Tol=  0.10000D-05 Strict=F.
 There are   344 symmetry adapted basis functions of A   symmetry.
 Integral buffers will be    131072 words long.
 Raffenetti 1 integral format.
 Two-electron integral symmetry is turned on.
   344 basis functions,   648 primitive gaussians,   344 cartesian basis functions
    77 alpha electrons       77 beta electrons
       nuclear repulsion energy      1740.8181998980 Hartrees.
 IExCor=    0 DFT=F Ex=HF Corr=None ExCW=0 ScaHFX=  1.000000
 ScaDFX=  1.000000  1.000000  1.000000  1.000000 ScalE2=  1.000000  1.000000
 IRadAn=      0 IRanWt=     -1 IRanGd=            0 ICorTp=0
 NAtoms=   42 NActive=   42 NUniq=   42 SFac= 7.50D-01 NAtFMM=   80 NAOKFM=F Big=F
 Leave Link  301 at Tue Jul  5 10:12:36 2016, MaxMem=   33554432 cpu:       0.1
 (Enter /home/kanhaya91/Software/g09/l302.exe)
 NPDir=0 NMtPBC=     1 NCelOv=     1 NCel=       1 NClECP=     1 NCelD=      1
         NCelK=      1 NCelE2=     1 NClLst=     1 CellRange=     0.0.
 One-electron integrals computed using PRISM.
 NBasis=   344 RedAO= T  NBF=   344
 NBsUse=   344 1.00D-06 NBFU=   344
 Leave Link  302 at Tue Jul  5 10:12:36 2016, MaxMem=   33554432 cpu:       0.6
 (Enter /home/kanhaya91/Software/g09/l303.exe)
 DipDrv:  MaxL=1.
 Leave Link  303 at Tue Jul  5 10:12:37 2016, MaxMem=   33554432 cpu:       0.1
 (Enter /home/kanhaya91/Software/g09/l401.exe)
 Initial guess read from the read-write file.
 B after Tr=     0.000000    0.000000    0.000000
         Rot=    1.000000    0.000000    0.000000    0.000000 Ang=   0.00 deg.
 Guess basis will be translated and rotated to current coordinates.
 Initial guess orbital symmetries:
       Occupied  (A) (A) (A) (A) (A) (A) (A) (A) (A) (A) (A) (A)
                 (A) (A) (A) (A) (A) (A) (A) (A) (A) (A) (A) (A)
                 (A) (A) (A) (A) (A) (A) (A) (A) (A) (A) (A) (A)
                 (A) (A) (A) (A) (A) (A) (A) (A) (A) (A) (A) (A)
                 (A) (A) (A) (A) (A) (A) (A) (A) (A) (A) (A) (A)
                 (A) (A) (A) (A) (A) (A) (A) (A) (A) (A) (A) (A)
                 (A) (A) (A) (A) (A)
       Virtual   (A) (A) (A) (A) (A) (A) (A) (A) (A) (A) (A) (A)
                 (A) (A) (A) (A) (A) (A) (A) (A) (A) (A) (A) (A)
                 (A) (A) (A) (A) (A) (A) (A) (A) (A) (A) (A) (A)
                 (A) (A) (A) (A) (A) (A) (A) (A) (A) (A) (A) (A)
                 (A) (A) (A) (A) (A) (A) (A) (A) (A) (A) (A) (A)
                 (A) (A) (A) (A) (A) (A) (A) (A) (A) (A) (A) (A)
                 (A) (A) (A) (A) (A) (A) (A) (A) (A) (A) (A) (A)
                 (A) (A) (A) (A) (A) (A) (A) (A) (A) (A) (A) (A)
                 (A) (A) (A) (A) (A) (A) (A) (A) (A) (A) (A) (A)
                 (A) (A) (A) (A) (A) (A) (A) (A) (A) (A) (A) (A)
                 (A) (A) (A) (A) (A) (A) (A) (A) (A) (A) (A) (A)
                 (A) (A) (A) (A) (A) (A) (A) (A) (A) (A) (A) (A)
                 (A) (A) (A) (A) (A) (A) (A) (A) (A) (A) (A) (A)
                 (A) (A) (A) (A) (A) (A) (A) (A) (A) (A) (A) (A)
                 (A) (A) (A) (A) (A) (A) (A) (A) (A) (A) (A) (A)
                 (A) (A) (A) (A) (A) (A) (A) (A) (A) (A) (A) (A)
                 (A) (A) (A) (A) (A) (A) (A) (A) (A) (A) (A) (A)
                 (A) (A) (A) (A) (A) (A) (A) (A) (A) (A) (A) (A)
                 (A) (A) (A) (A) (A) (A) (A) (A) (A) (A) (A) (A)
                 (A) (A) (A) (A) (A) (A) (A) (A) (A) (A) (A) (A)
                 (A) (A) (A) (A) (A) (A) (A) (A) (A) (A) (A) (A)
                 (A) (A) (A) (A) (A) (A) (A) (A) (A) (A) (A) (A)
                 (A) (A) (A)
 The electronic state of the initial guess is 1-A.
 Generating alternative initial guess.
 Harris functional with IExCor=  205 diagonalized for initial guess.
 ExpMin= 1.61D-01 ExpMax= 5.48D+03 ExpMxC= 8.25D+02 IAcc=1 IRadAn=         1 AccDes= 0.00D+00
 HarFok:  IExCor=  205 AccDes= 0.00D+00 IRadAn=         1 IDoV= 1
 ScaDFX=  1.000000  1.000000  1.000000  1.000000
 FoFCou: FMM=F IPFlag=           0 FMFlag=      100000 FMFlg1=           0
         NFxFlg=           0 DoJE=T BraDBF=F KetDBF=T FulRan=T
         Omega=  0.000000  0.000000  1.000000  0.000000  0.000000 ICntrl=     500 IOpCl=  0
         NMat0=    1 NMatS0=    1 NMatT0=    0 NMatD0=    1 NMtDS0=    0 NMtDT0=    0
         I1Cent=           4 NGrid=           0.
 Petite list used in FoFCou.
 Harris En= -985.892291494472    
 Leave Link  401 at Tue Jul  5 10:12:43 2016, MaxMem=   33554432 cpu:       6.5
 (Enter /home/kanhaya91/Software/g09/l502.exe)
 Closed shell SCF:
 Requested convergence on RMS density matrix=1.00D-06 within 128 cycles.
 Requested convergence on MAX density matrix=1.00D-04.
 Requested convergence on             energy=1.00D-04.
 No special actions if energy rises.
 Using DIIS extrapolation, IDIIS=  1040.
 Integral symmetry usage will be decided dynamically.
 IEnd=      377834 IEndB=      377834 NGot=    33554432 MDV=    33311919
 LenX=    33311919 LenY=    33193142
 Fock matrices will be formed incrementally for  20 cycles.
 Integral accuracy reduced to 1.0D-05 until final iterations.

 Cycle   1  Pass 0  IDiag  1:
 FoFCou: FMM=F IPFlag=           0 FMFlag=      100000 FMFlg1=           0
         NFxFlg=           0 DoJE=F BraDBF=F KetDBF=F FulRan=T
         Omega=  0.000000  0.000000  1.000000  0.000000  0.000000 ICntrl=       0 IOpCl=  0
         NMat0=    1 NMatS0=    1 NMatT0=    0 NMatD0=    1 NMtDS0=    0 NMtDT0=    0
         I1Cent=           0 NGrid=           0.
 Symmetry not used in FoFCou.
 E= -984.566624804565    
 DIIS: error= 1.54D-03 at cycle   1 NSaved=   1.
 NSaved= 1 IEnMin= 1 EnMin= -984.566624804565     IErMin= 1 ErrMin= 1.54D-03
 ErrMax= 1.54D-03 EMaxC= 1.00D-01 BMatC= 9.28D-04 BMatP= 9.28D-04
 IDIUse=3 WtCom= 9.85D-01 WtEn= 1.54D-02
 Coeff-Com:  0.100D+01
 Coeff-En:   0.100D+01
 Coeff:      0.100D+01
 Gap=     0.515 Goal=   None    Shift=    0.000
 GapD=    0.515 DampG=2.000 DampE=1.000 DampFc=2.0000 IDamp=-1.
 RMSDP=1.03D-04 MaxDP=4.68D-03              OVMax= 4.07D-03

 Cycle   2  Pass 0  IDiag  1:
 RMSU=  7.29D-05    CP:  1.00D+00
 E= -984.567677337510     Delta-E=       -0.001052532945 Rises=F Damp=F
 DIIS: error= 3.53D-04 at cycle   2 NSaved=   2.
 NSaved= 2 IEnMin= 2 EnMin= -984.567677337510     IErMin= 2 ErrMin= 3.53D-04
 ErrMax= 3.53D-04 EMaxC= 1.00D-01 BMatC= 8.17D-05 BMatP= 9.28D-04
 IDIUse=3 WtCom= 9.96D-01 WtEn= 3.53D-03
 Coeff-Com:  0.901D-02 0.991D+00
 Coeff-En:   0.000D+00 0.100D+01
 Coeff:      0.898D-02 0.991D+00
 Gap=     0.512 Goal=   None    Shift=    0.000
 RMSDP=4.16D-05 MaxDP=1.81D-03 DE=-1.05D-03 OVMax= 2.45D-03

 Cycle   3  Pass 0  IDiag  1:
 RMSU=  2.74D-05    CP:  1.00D+00  1.15D+00
 E= -984.567777758954     Delta-E=       -0.000100421444 Rises=F Damp=F
 DIIS: error= 1.98D-04 at cycle   3 NSaved=   3.
 NSaved= 3 IEnMin= 3 EnMin= -984.567777758954     IErMin= 3 ErrMin= 1.98D-04
 ErrMax= 1.98D-04 EMaxC= 1.00D-01 BMatC= 2.15D-05 BMatP= 8.17D-05
 IDIUse=3 WtCom= 9.98D-01 WtEn= 1.98D-03
 Coeff-Com: -0.930D-01 0.256D+00 0.837D+00
 Coeff-En:   0.000D+00 0.000D+00 0.100D+01
 Coeff:     -0.928D-01 0.255D+00 0.838D+00
 Gap=     0.513 Goal=   None    Shift=    0.000
 RMSDP=1.71D-05 MaxDP=1.00D-03 DE=-1.00D-04 OVMax= 7.20D-04

 Cycle   4  Pass 0  IDiag  1:
 RMSU=  9.50D-06    CP:  1.00D+00  1.25D+00  1.01D+00
 E= -984.567799609247     Delta-E=       -0.000021850293 Rises=F Damp=F
 DIIS: error= 5.51D-05 at cycle   4 NSaved=   4.
 NSaved= 4 IEnMin= 4 EnMin= -984.567799609247     IErMin= 4 ErrMin= 5.51D-05
 ErrMax= 5.51D-05 EMaxC= 1.00D-01 BMatC= 1.51D-06 BMatP= 2.15D-05
 IDIUse=1 WtCom= 1.00D+00 WtEn= 0.00D+00
 Coeff-Com: -0.183D-01-0.251D-01 0.147D+00 0.897D+00
 Coeff:     -0.183D-01-0.251D-01 0.147D+00 0.897D+00
 Gap=     0.513 Goal=   None    Shift=    0.000
 RMSDP=6.08D-06 MaxDP=2.46D-04 DE=-2.19D-05 OVMax= 3.72D-04

 Initial convergence to 1.0D-05 achieved.  Increase integral accuracy.
 Cycle   5  Pass 1  IDiag  1:
