 Entering Gaussian System, Link 0=g09
 Initial command:
 /home/kanhaya91/Software/g09/l1.exe /tmp/Gau-25000.inp -scrdir=/tmp/
 Entering Link 1 = /home/kanhaya91/Software/g09/l1.exe PID=     25002.
  
 Copyright (c) 1988,1990,1992,1993,1995,1998,2003,2009, Gaussian, Inc.
                  All Rights Reserved.
  
 This is part of the Gaussian(R) 09 program.  It is based on
 the Gaussian(R) 03 system (copyright 2003, Gaussian, Inc.),
 the Gaussian(R) 98 system (copyright 1998, Gaussian, Inc.),
 the Gaussian(R) 94 system (copyright 1995, Gaussian, Inc.),
 the Gaussian 92(TM) system (copyright 1992, Gaussian, Inc.),
 the Gaussian 90(TM) system (copyright 1990, Gaussian, Inc.),
 the Gaussian 88(TM) system (copyright 1988, Gaussian, Inc.),
 the Gaussian 86(TM) system (copyright 1986, Carnegie Mellon
 University), and the Gaussian 82(TM) system (copyright 1983,
 Carnegie Mellon University). Gaussian is a federally registered
 trademark of Gaussian, Inc.
  
 This software contains proprietary and confidential information,
 including trade secrets, belonging to Gaussian, Inc.
  
 This software is provided under written license and may be
 used, copied, transmitted, or stored only in accord with that
 written license.
  
 The following legend is applicable only to US Government
 contracts under FAR:
  
                    RESTRICTED RIGHTS LEGEND
  
 Use, reproduction and disclosure by the US Government is
 subject to restrictions as set forth in subparagraphs (a)
 and (c) of the Commercial Computer Software - Restricted
 Rights clause in FAR 52.227-19.
  
 Gaussian, Inc.
 340 Quinnipiac St., Bldg. 40, Wallingford CT 06492
  
  
 ---------------------------------------------------------------
 Warning -- This program may not be used in any manner that
 competes with the business of Gaussian, Inc. or will provide
 assistance to any competitor of Gaussian, Inc.  The licensee
 of this program is prohibited from giving any competitor of
 Gaussian, Inc. access to this program.  By using this program,
 the user acknowledges that Gaussian, Inc. is engaged in the
 business of creating and licensing software in the field of
 computational chemistry and represents and warrants to the
 licensee that it is not a competitor of Gaussian, Inc. and that
 it will not use this program in any manner prohibited above.
 ---------------------------------------------------------------
  

 Cite this work as:
 Gaussian 09, Revision A.02,
 M. J. Frisch, G. W. Trucks, H. B. Schlegel, G. E. Scuseria, 
 M. A. Robb, J. R. Cheeseman, G. Scalmani, V. Barone, B. Mennucci, 
 G. A. Petersson, H. Nakatsuji, M. Caricato, X. Li, H. P. Hratchian, 
 A. F. Izmaylov, J. Bloino, G. Zheng, J. L. Sonnenberg, M. Hada, 
 M. Ehara, K. Toyota, R. Fukuda, J. Hasegawa, M. Ishida, T. Nakajima, 
 Y. Honda, O. Kitao, H. Nakai, T. Vreven, J. A. Montgomery, Jr., 
 J. E. Peralta, F. Ogliaro, M. Bearpark, J. J. Heyd, E. Brothers, 
 K. N. Kudin, V. N. Staroverov, R. Kobayashi, J. Normand, 
 K. Raghavachari, A. Rendell, J. C. Burant, S. S. Iyengar, J. Tomasi, 
 M. Cossi, N. Rega, J. M. Millam, M. Klene, J. E. Knox, J. B. Cross, 
 V. Bakken, C. Adamo, J. Jaramillo, R. Gomperts, R. E. Stratmann, 
 O. Yazyev, A. J. Austin, R. Cammi, C. Pomelli, J. W. Ochterski, 
 R. L. Martin, K. Morokuma, V. G. Zakrzewski, G. A. Voth, 
 P. Salvador, J. J. Dannenberg, S. Dapprich, A. D. Daniels, 
 O. Farkas, J. B. Foresman, J. V. Ortiz, J. Cioslowski, 
 and D. J. Fox, Gaussian, Inc., Wallingford CT, 2009.
 
 ******************************************
 Gaussian 09:  EM64L-G09RevA.02 11-Jun-2009
                 5-Jul-2016 
 ******************************************
 %chk=structure.chk
 ----------------------------------------------------------------
 #P hf/6-31G* Opt=(Z-matrix,Tight,CalcFC) Freq SCF(Conver=6) Test
 ----------------------------------------------------------------
 1/7=10,10=4,18=40,38=1/1,3;
 2/12=2,17=6,18=5,29=3,40=1/2;
 3/5=1,6=6,7=1,11=9,16=1,25=1,30=1,71=2/1,2,3;
 4//1;
 5/5=2,6=6,38=5/2;
 8/6=4,10=90,11=11/1;
 11/6=1,8=1,9=11,15=111,16=1/1,2,10;
 10/6=1,7=6,13=1/2;
 6/7=2,8=2,9=2,10=2,28=1/1;
 7/10=1,18=20,25=1/1,2,3,16;
 1/7=10,10=4,18=40/3(2);
 2/29=3/2;
 99//99;
 2/29=3/2;
 3/5=1,6=6,7=1,11=9,16=1,25=1,30=1,71=1/1,2,3;
 4/5=5,16=3/1;
 5/5=2,6=6,38=5/2;
 7//1,2,3,16;
 1/7=10,18=40/3(-5);
 2/29=3/2;
 6/7=2,8=2,9=2,10=2,19=2,28=1/1;
 99/9=1/99;
 Leave Link    1 at Tue Jul  5 10:17:19 2016, MaxMem=          0 cpu:       0.0
 (Enter /home/kanhaya91/Software/g09/l101.exe)
 -----------------------
 Optimization of phi 180
 -----------------------
 Symbolic Z-matrix:
 Charge =  0 Multiplicity = 1
 H
 C                    1    b2
 H                    2    b3       1    a3
 H                    2    b4       3    a4       1    t4       0
 C                    2    b5       4    a5       1    t5       0
 O                    5    b6       2    a6       1    t6       0
 N                    5    b7       2    a7       1    t7       0
 H                    7    b8       5    a8       2    t8       0
 C                    7    b9       5    a9       2    t9       0
 H                    9    b10      7    a10      5    t10      0
 C                    9    b11      7    a11      5    t11      0
 H                    11   b12      9    a12      7    t12      0
 H                    11   b13      9    a13      7    t13      0
 H                    11   b14      9    a14      7    t14      0
 C                    9    b15      7    a15      5    t15      0
 O                    15   b16      9    a16      7    t16      0
 N                    15   b17      9    a17      7    t17      0
 H                    17   b18      15   a18      9    t18      0
 C                    17   b19      15   a19      9    t19      0
 H                    19   b20      17   a20      15   t20      0
 C                    19   b21      17   a21      15   t21      0
 H                    21   b22      19   a22      17   t22      0
 H                    21   b23      19   a23      17   t23      0
 H                    21   b24      19   a24      17   t24      0
 C                    19   b25      17   a25      15   t25      0
 O                    25   b26      19   a26      17   t26      0
 N                    25   b27      19   a27      17   t27      0
 H                    27   b28      25   a28      19   t28      0
 C                    27   b29      25   a29      19   t29      0
 H                    29   b30      27   a30      25   t30      0
 C                    29   b31      27   a31      25   t31      0
 H                    31   b32      29   a32      27   t32      0
 H                    31   b33      29   a33      27   t33      0
 H                    31   b34      29   a34      27   t34      0
 C                    29   b35      27   a35      25   t35      0
 O                    35   b36      29   a36      27   t36      0
 N                    35   b37      29   a37      27   t37      0
 H                    37   b38      35   a38      29   t38      0
 C                    37   b39      35   a39      29   t39      0
 H                    39   b40      37   a40      35   t40      0
 H                    39   b41      37   a41      35   t41      0
 H                    39   b42      37   a42      35   t42      0
       Variables:
  b2                    1.0817                   
  b3                    1.0832                   
  a3                  109.6371                   
  b4                    1.0848                   
  a4                  108.7088                   
  t4                  117.7073                   
  b5                    1.5132                   
  a5                  108.558                    
  t5                  117.6148                   
  b6                    1.2036                   
  a6                  121.6808                   
  t6                   41.8721                   
  b7                    1.3486                   
  a7                  115.7819                   
  t7                  220.6887                   
  b8                    0.9951                   
  a8                  121.2657                   
  t8                    3.9997                   
  b9                    1.4419                   
  a9                  122.1228                   
  t9                  179.9613                   
  b10                   1.0833                   
  a10                 108.1416                   
  t10                 -38.2907                   
  b11                   1.5352                   
  a11                 112.2304                   
  t11                  81.8331                   
  b12                   1.0837                   
  a12                 110.8757                   
  t12                  63.0979                   
  b13                   1.0849                   
  a13                 111.6846                   
  t13                 183.7832                   
  b14                   1.0818                   
  a14                 108.8073                   
  t14                 -56.9021                   
  b15                   1.526                    
  a15                 107.3977                   
  t15                 203.6856                   
  b16                   1.202                    
  a16                 121.792                    
  t16                 -19.9245                   
  b17                   1.354                    
  a17                 115.356                    
  t17                 162.4237                   
  b18                   0.9955                   
  a18                 118.4075                   
  t18                  -7.9927                   
  b19                   1.4513                   
  a19                 123.0372                   
  t19                 180.                       
  b20                   1.0803                   
  a20                 107.1693                   
  t20                  21.1725                   
  b21                   1.529                    
  a21                 110.3566                   
  t21                 140.1202                   
  b22                   1.0871                   
  a22                 111.0821                   
  t22                  60.6603                   
  b23                   1.0802                   
  a23                 109.9132                   
  t23                -179.7344                   
  b24                   1.0839                   
  a24                 110.0523                   
  t24                 -59.4457                   
  b25                   1.5314                   
  a25                 114.83                     
  t25                 264.8196                   
  b26                   1.2052                   
  a26                 119.2269                   
  t26                 180.0098                   
  b27                   1.3406                   
  a27                 117.6373                   
  t27                   0.                       
  b28                   0.9941                   
  a28                 120.8873                   
  t28                   4.2151                   
  b29                   1.4431                   
  a29                 121.9926                   
  t29                 175.6922                   
  b30                   1.0831                   
  a30                 108.3661                   
  t30                 -37.2885                   
  b31                   1.5343                   
  a31                 112.0417                   
  t31                  82.9247                   
  b32                   1.0845                   
  a32                 110.3017                   
  t32                  60.96                     
  b33                   1.085                    
  a33                 111.2711                   
  t33                 181.4426                   
  b34                   1.0819                   
  a34                 109.1859                   
  t34                 -58.8145                   
  b35                   1.5262                   
  a35                 107.2937                   
  t35                 204.2028                   
  b36                   1.2046                   
  a36                 121.4317                   
  t36                 -23.1061                   
  b37                   1.3439                   
  a37                 115.6771                   
  t37                 159.1006                   
  b38                   0.9935                   
  a38                 118.9653                   
  t38                  -9.4901                   
  b39                   1.4488                   
  a39                 121.7269                   
  t39                 179.7068                   
  b40                   1.0804                   
  a40                 109.9548                   
  t40                 -49.7771                   
  b41                   1.0839                   
  a41                 111.5874                   
  t41                  70.6799                   
  b42                   1.0815                   
  a42                 108.6367                   
  t42                -169.0413                   
 
 NAtoms=     42 NQM=     42 NQMF=      0 NMic=      0 NMicF=      0 NTot=     42.
                    Isotopes and Nuclear Properties:
 (Nuclear quadrupole moments (NQMom) in fm**2, nuclear magnetic moments (NMagM)
  in nuclear magnetons)

  Atom         1           2           3           4           5           6           7           8           9          10
 IAtWgt=           1          12           1           1          12          16          14           1          12           1
 AtmWgt=   1.0078250  12.0000000   1.0078250   1.0078250  12.0000000  15.9949146  14.0030740   1.0078250  12.0000000   1.0078250
 NucSpn=           1           0           1           1           0           0           2           1           0           1
 AtZEff=   0.0000000   0.0000000   0.0000000   0.0000000   0.0000000   0.0000000   0.0000000   0.0000000   0.0000000   0.0000000
 NQMom=    0.0000000   0.0000000   0.0000000   0.0000000   0.0000000   0.0000000   2.0440000   0.0000000   0.0000000   0.0000000
 NMagM=    2.7928460   0.0000000   2.7928460   2.7928460   0.0000000   0.0000000   0.4037610   2.7928460   0.0000000   2.7928460

  Atom        11          12          13          14          15          16          17          18          19          20
 IAtWgt=          12           1           1           1          12          16          14           1          12           1
 AtmWgt=  12.0000000   1.0078250   1.0078250   1.0078250  12.0000000  15.9949146  14.0030740   1.0078250  12.0000000   1.0078250
 NucSpn=           0           1           1           1           0           0           2           1           0           1
 AtZEff=   0.0000000   0.0000000   0.0000000   0.0000000   0.0000000   0.0000000   0.0000000   0.0000000   0.0000000   0.0000000
 NQMom=    0.0000000   0.0000000   0.0000000   0.0000000   0.0000000   0.0000000   2.0440000   0.0000000   0.0000000   0.0000000
 NMagM=    0.0000000   2.7928460   2.7928460   2.7928460   0.0000000   0.0000000   0.4037610   2.7928460   0.0000000   2.7928460

  Atom        21          22          23          24          25          26          27          28          29          30
 IAtWgt=          12           1           1           1          12          16          14           1          12           1
 AtmWgt=  12.0000000   1.0078250   1.0078250   1.0078250  12.0000000  15.9949146  14.0030740   1.0078250  12.0000000   1.0078250
 NucSpn=           0           1           1           1           0           0           2           1           0           1
 AtZEff=   0.0000000   0.0000000   0.0000000   0.0000000   0.0000000   0.0000000   0.0000000   0.0000000   0.0000000   0.0000000
 NQMom=    0.0000000   0.0000000   0.0000000   0.0000000   0.0000000   0.0000000   2.0440000   0.0000000   0.0000000   0.0000000
 NMagM=    0.0000000   2.7928460   2.7928460   2.7928460   0.0000000   0.0000000   0.4037610   2.7928460   0.0000000   2.7928460

  Atom        31          32          33          34          35          36          37          38          39          40
 IAtWgt=          12           1           1           1          12          16          14           1          12           1
 AtmWgt=  12.0000000   1.0078250   1.0078250   1.0078250  12.0000000  15.9949146  14.0030740   1.0078250  12.0000000   1.0078250
 NucSpn=           0           1           1           1           0           0           2           1           0           1
 AtZEff=   0.0000000   0.0000000   0.0000000   0.0000000   0.0000000   0.0000000   0.0000000   0.0000000   0.0000000   0.0000000
 NQMom=    0.0000000   0.0000000   0.0000000   0.0000000   0.0000000   0.0000000   2.0440000   0.0000000   0.0000000   0.0000000
 NMagM=    0.0000000   2.7928460   2.7928460   2.7928460   0.0000000   0.0000000   0.4037610   2.7928460   0.0000000   2.7928460

  Atom        41          42
 IAtWgt=           1           1
 AtmWgt=   1.0078250   1.0078250
 NucSpn=           1           1
 AtZEff=   0.0000000   0.0000000
 NQMom=    0.0000000   0.0000000
 NMagM=    2.7928460   2.7928460
 Leave Link  101 at Tue Jul  5 10:17:19 2016, MaxMem=   33554432 cpu:       0.1
 (Enter /home/kanhaya91/Software/g09/l103.exe)

 GradGradGradGradGradGradGradGradGradGradGradGradGradGradGradGradGradGrad
 Berny optimization.
 Initialization pass.
                       ----------------------------
                       !    Initial Parameters    !
                       ! (Angstroms and Degrees)  !
 ----------------------                            ----------------------
 !      Name          Value   Derivative information (Atomic Units)     !
 ------------------------------------------------------------------------
 !       b2          1.0817   calculate D2E/DX2 analytically            !
 !       b3          1.0832   calculate D2E/DX2 analytically            !
 !       a3        109.6371   calculate D2E/DX2 analytically            !
 !       b4          1.0848   calculate D2E/DX2 analytically            !
 !       a4        108.7088   calculate D2E/DX2 analytically            !
 !       t4        117.7073   calculate D2E/DX2 analytically            !
 !       b5          1.5132   calculate D2E/DX2 analytically            !
 !       a5        108.558    calculate D2E/DX2 analytically            !
 !       t5        117.6148   calculate D2E/DX2 analytically            !
 !       b6          1.2036   calculate D2E/DX2 analytically            !
 !       a6        121.6808   calculate D2E/DX2 analytically            !
 !       t6         41.8721   calculate D2E/DX2 analytically            !
 !       b7          1.3486   calculate D2E/DX2 analytically            !
 !       a7        115.7819   calculate D2E/DX2 analytically            !
 !       t7        220.6887   calculate D2E/DX2 analytically            !
 !       b8          0.9951   calculate D2E/DX2 analytically            !
 !       a8        121.2657   calculate D2E/DX2 analytically            !
 !       t8          3.9997   calculate D2E/DX2 analytically            !
 !       b9          1.4419   calculate D2E/DX2 analytically            !
 !       a9        122.1228   calculate D2E/DX2 analytically            !
 !       t9        179.9613   calculate D2E/DX2 analytically            !
 !       b10         1.0833   calculate D2E/DX2 analytically            !
 !       a10       108.1416   calculate D2E/DX2 analytically            !
 !       t10       -38.2907   calculate D2E/DX2 analytically            !
 !       b11         1.5352   calculate D2E/DX2 analytically            !
 !       a11       112.2304   calculate D2E/DX2 analytically            !
 !       t11        81.8331   calculate D2E/DX2 analytically            !
 !       b12         1.0837   calculate D2E/DX2 analytically            !
 !       a12       110.8757   calculate D2E/DX2 analytically            !
 !       t12        63.0979   calculate D2E/DX2 analytically            !
 !       b13         1.0849   calculate D2E/DX2 analytically            !
 !       a13       111.6846   calculate D2E/DX2 analytically            !
 !       t13       183.7832   calculate D2E/DX2 analytically            !
 !       b14         1.0818   calculate D2E/DX2 analytically            !
 !       a14       108.8073   calculate D2E/DX2 analytically            !
 !       t14       -56.9021   calculate D2E/DX2 analytically            !
 !       b15         1.526    calculate D2E/DX2 analytically            !
 !       a15       107.3977   calculate D2E/DX2 analytically            !
 !       t15       203.6856   calculate D2E/DX2 analytically            !
 !       b16         1.202    calculate D2E/DX2 analytically            !
 !       a16       121.792    calculate D2E/DX2 analytically            !
 !       t16       -19.9245   calculate D2E/DX2 analytically            !
 !       b17         1.354    calculate D2E/DX2 analytically            !
 !       a17       115.356    calculate D2E/DX2 analytically            !
 !       t17       162.4237   calculate D2E/DX2 analytically            !
 !       b18         0.9955   calculate D2E/DX2 analytically            !
 !       a18       118.4075   calculate D2E/DX2 analytically            !
 !       t18        -7.9927   calculate D2E/DX2 analytically            !
 !       b19         1.4513   calculate D2E/DX2 analytically            !
 !       a19       123.0372   calculate D2E/DX2 analytically            !
 !       t19       180.0      calculate D2E/DX2 analytically            !
 !       b20         1.0803   calculate D2E/DX2 analytically            !
 !       a20       107.1693   calculate D2E/DX2 analytically            !
 !       t20        21.1725   calculate D2E/DX2 analytically            !
 !       b21         1.529    calculate D2E/DX2 analytically            !
 !       a21       110.3566   calculate D2E/DX2 analytically            !
 !       t21       140.1202   calculate D2E/DX2 analytically            !
 !       b22         1.0871   calculate D2E/DX2 analytically            !
 !       a22       111.0821   calculate D2E/DX2 analytically            !
 !       t22        60.6603   calculate D2E/DX2 analytically            !
 !       b23         1.0802   calculate D2E/DX2 analytically            !
 !       a23       109.9132   calculate D2E/DX2 analytically            !
 !       t23      -179.7344   calculate D2E/DX2 analytically            !
 !       b24         1.0839   calculate D2E/DX2 analytically            !
 !       a24       110.0523   calculate D2E/DX2 analytically            !
 !       t24       -59.4457   calculate D2E/DX2 analytically            !
 !       b25         1.5314   calculate D2E/DX2 analytically            !
 !       a25       114.83     calculate D2E/DX2 analytically            !
 !       t25       264.8196   calculate D2E/DX2 analytically            !
 !       b26         1.2052   calculate D2E/DX2 analytically            !
 !       a26       119.2269   calculate D2E/DX2 analytically            !
 !       t26       180.0098   calculate D2E/DX2 analytically            !
 !       b27         1.3406   calculate D2E/DX2 analytically            !
 !       a27       117.6373   calculate D2E/DX2 analytically            !
 !       t27         0.0      calculate D2E/DX2 analytically            !
 !       b28         0.9941   calculate D2E/DX2 analytically            !
 !       a28       120.8873   calculate D2E/DX2 analytically            !
 !       t28         4.2151   calculate D2E/DX2 analytically            !
 !       b29         1.4431   calculate D2E/DX2 analytically            !
 !       a29       121.9926   calculate D2E/DX2 analytically            !
 !       t29       175.6922   calculate D2E/DX2 analytically            !
 !       b30         1.0831   calculate D2E/DX2 analytically            !
 !       a30       108.3661   calculate D2E/DX2 analytically            !
 !       t30       -37.2885   calculate D2E/DX2 analytically            !
 !       b31         1.5343   calculate D2E/DX2 analytically            !
 !       a31       112.0417   calculate D2E/DX2 analytically            !
 !       t31        82.9247   calculate D2E/DX2 analytically            !
 !       b32         1.0845   calculate D2E/DX2 analytically            !
 !       a32       110.3017   calculate D2E/DX2 analytically            !
 !       t32        60.96     calculate D2E/DX2 analytically            !
 !       b33         1.085    calculate D2E/DX2 analytically            !
 !       a33       111.2711   calculate D2E/DX2 analytically            !
 !       t33       181.4426   calculate D2E/DX2 analytically            !
 !       b34         1.0819   calculate D2E/DX2 analytically            !
 !       a34       109.1859   calculate D2E/DX2 analytically            !
 !       t34       -58.8145   calculate D2E/DX2 analytically            !
 !       b35         1.5262   calculate D2E/DX2 analytically            !
 !       a35       107.2937   calculate D2E/DX2 analytically            !
 !       t35       204.2028   calculate D2E/DX2 analytically            !
 !       b36         1.2046   calculate D2E/DX2 analytically            !
 !       a36       121.4317   calculate D2E/DX2 analytically            !
 !       t36       -23.1061   calculate D2E/DX2 analytically            !
 !       b37         1.3439   calculate D2E/DX2 analytically            !
 !       a37       115.6771   calculate D2E/DX2 analytically            !
 !       t37       159.1006   calculate D2E/DX2 analytically            !
 !       b38         0.9935   calculate D2E/DX2 analytically            !
 !       a38       118.9653   calculate D2E/DX2 analytically            !
 !       t38        -9.4901   calculate D2E/DX2 analytically            !
 !       b39         1.4488   calculate D2E/DX2 analytically            !
 !       a39       121.7269   calculate D2E/DX2 analytically            !
 !       t39       179.7068   calculate D2E/DX2 analytically            !
 !       b40         1.0804   calculate D2E/DX2 analytically            !
 !       a40       109.9548   calculate D2E/DX2 analytically            !
 !       t40       -49.7771   calculate D2E/DX2 analytically            !
 !       b41         1.0839   calculate D2E/DX2 analytically            !
 !       a41       111.5874   calculate D2E/DX2 analytically            !
 !       t41        70.6799   calculate D2E/DX2 analytically            !
 !       b42         1.0815   calculate D2E/DX2 analytically            !
 !       a42       108.6367   calculate D2E/DX2 analytically            !
 !       t42      -169.0413   calculate D2E/DX2 analytically            !
 ------------------------------------------------------------------------
 Trust Radius=3.00D-01 FncErr=1.00D-07 GrdErr=1.00D-07
 Number of steps in this run= 130 maximum allowed number of steps= 240.
 GradGradGradGradGradGradGradGradGradGradGradGradGradGradGradGradGradGrad

 Leave Link  103 at Tue Jul  5 10:17:19 2016, MaxMem=   33554432 cpu:       0.0
 (Enter /home/kanhaya91/Software/g09/l202.exe)
 ---------------------------------------------------------------------------------------------------
                            Z-MATRIX (ANGSTROMS AND DEGREES)
   CD    Cent   Atom    N1       Length/X        N2       Alpha/Y        N3        Beta/Z          J
 ---------------------------------------------------------------------------------------------------
      1      1  H 
      2      2  C        1   1.081700(     1)
      3      3  H        2   1.083200(     2)      1  109.637(    42)
      4      4  H        2   1.084800(     3)      3  108.709(    43)      1  117.707(    82)      0
      5      5  C        2   1.513200(     4)      4  108.558(    44)      1  117.615(    83)      0
      6      6  O        5   1.203600(     5)      2  121.681(    45)      1   41.872(    84)      0
      7      7  N        5   1.348600(     6)      2  115.782(    46)      1  220.689(    85)      0
      8      8  H        7   0.995100(     7)      5  121.266(    47)      2    4.000(    86)      0
      9      9  C        7   1.441900(     8)      5  122.123(    48)      2  179.961(    87)      0
     10     10  H        9   1.083300(     9)      7  108.142(    49)      5  -38.291(    88)      0
     11     11  C        9   1.535200(    10)      7  112.230(    50)      5   81.833(    89)      0
     12     12  H       11   1.083700(    11)      9  110.876(    51)      7   63.098(    90)      0
     13     13  H       11   1.084900(    12)      9  111.685(    52)      7  183.783(    91)      0
     14     14  H       11   1.081800(    13)      9  108.807(    53)      7  -56.902(    92)      0
     15     15  C        9   1.526000(    14)      7  107.398(    54)      5  203.686(    93)      0
     16     16  O       15   1.202000(    15)      9  121.792(    55)      7  -19.925(    94)      0
     17     17  N       15   1.354000(    16)      9  115.356(    56)      7  162.424(    95)      0
     18     18  H       17   0.995500(    17)     15  118.408(    57)      9   -7.993(    96)      0
     19     19  C       17   1.451300(    18)     15  123.037(    58)      9  180.000(    97)      0
     20     20  H       19   1.080300(    19)     17  107.169(    59)     15   21.173(    98)      0
     21     21  C       19   1.529000(    20)     17  110.357(    60)     15  140.120(    99)      0
     22     22  H       21   1.087100(    21)     19  111.082(    61)     17   60.660(   100)      0
     23     23  H       21   1.080200(    22)     19  109.913(    62)     17 -179.734(   101)      0
     24     24  H       21   1.083900(    23)     19  110.052(    63)     17  -59.446(   102)      0
     25     25  C       19   1.531400(    24)     17  114.830(    64)     15  264.820(   103)      0
     26     26  O       25   1.205200(    25)     19  119.227(    65)     17  180.010(   104)      0
     27     27  N       25   1.340600(    26)     19  117.637(    66)     17    0.000(   105)      0
     28     28  H       27   0.994100(    27)     25  120.887(    67)     19    4.215(   106)      0
     29     29  C       27   1.443100(    28)     25  121.993(    68)     19  175.692(   107)      0
     30     30  H       29   1.083100(    29)     27  108.366(    69)     25  -37.289(   108)      0
     31     31  C       29   1.534300(    30)     27  112.042(    70)     25   82.925(   109)      0
     32     32  H       31   1.084500(    31)     29  110.302(    71)     27   60.960(   110)      0
     33     33  H       31   1.085000(    32)     29  111.271(    72)     27  181.443(   111)      0
     34     34  H       31   1.081900(    33)     29  109.186(    73)     27  -58.815(   112)      0
     35     35  C       29   1.526200(    34)     27  107.294(    74)     25  204.203(   113)      0
     36     36  O       35   1.204600(    35)     29  121.432(    75)     27  -23.106(   114)      0
     37     37  N       35   1.343900(    36)     29  115.677(    76)     27  159.101(   115)      0
     38     38  H       37   0.993500(    37)     35  118.965(    77)     29   -9.490(   116)      0
     39     39  C       37   1.448800(    38)     35  121.727(    78)     29  179.707(   117)      0
     40     40  H       39   1.080400(    39)     37  109.955(    79)     35  -49.777(   118)      0
     41     41  H       39   1.083900(    40)     37  111.587(    80)     35   70.680(   119)      0
     42     42  H       39   1.081500(    41)     37  108.637(    81)     35 -169.041(   120)      0
 ---------------------------------------------------------------------------------------------------
                         Z-Matrix orientation:                         
 ---------------------------------------------------------------------
 Center     Atomic      Atomic             Coordinates (Angstroms)
 Number     Number       Type             X           Y           Z
 ---------------------------------------------------------------------
      1          1           0        0.000000    0.000000    0.000000
      2          6           0        0.000000    0.000000    1.081700
      3          1           0        1.020201    0.000000    1.445722
      4          1           0       -0.488269   -0.909664    1.414712
      5          6           0       -0.806661    1.184846    1.566688
      6          8           0       -1.846316    1.497118    1.046825
      7          7           0       -0.298838    1.845726    2.626912
      8          1           0        0.582513    1.597398    3.016498
      9          6           0       -0.954766    2.994768    3.200093
     10          1           0       -1.373081    3.582415    2.391872
     11          6           0       -2.083411    2.599177    4.162646
     12          1           0       -1.692505    2.050150    5.011273
     13          1           0       -2.613474    3.468313    4.537671
     14          1           0       -2.791009    1.975522    3.632881
     15          6           0        0.109635    3.813202    3.925278
     16          8           0        1.158766    3.332095    4.260932
     17          7           0       -0.232831    5.093320    4.203363
     18          1           0       -1.080164    5.450435    3.821897
     19          6           0        0.651968    6.018352    4.887262
     20          1           0        1.658293    5.643786    4.768692
     21          6           0        0.553125    7.409963    4.261571
     22          1           0       -0.457759    7.802376    4.338463
     23          1           0        1.217583    8.091200    4.772690
     24          1           0        0.825141    7.366286    3.213268
     25          6           0        0.436946    6.114213    6.400458
     26          8           0        1.129067    6.859380    7.047142
     27          7           0       -0.525334    5.353454    6.941264
     28          1           0       -1.035097    4.704738    6.386696
     29          6           0       -0.748053    5.300737    8.366099
     30          1           0        0.213174    5.342136    8.863527
     31          6           0       -1.613399    6.468663    8.857222
     32          1           0       -2.588420    6.439872    8.383256
     33          1           0       -1.751927    6.430880    9.932678
     34          1           0       -1.126826    7.401807    8.606226
     35          6           0       -1.430535    3.969821    8.669686
     36          8           0       -2.050923    3.375067    7.825620
     37          7           0       -1.329955    3.540035    9.939031
     38          1           0       -0.716850    4.014365   10.560444
     39          6           0       -1.934020    2.296559   10.372500
     40          1           0       -2.966306    2.258101   10.056003
     41          1           0       -1.416085    1.437315    9.962279
     42          1           0       -1.894000    2.250849   11.452292
 ---------------------------------------------------------------------
                    Distance matrix (angstroms):
                    1          2          3          4          5
     1  H    0.000000
     2  C    1.081700   0.000000
     3  H    1.769441   1.083200   0.000000
     4  H    1.751372   1.084800   1.761798   0.000000
     5  C    2.123458   1.513200   2.180806   2.124015   0.000000
     6  O    2.597323   2.377280   3.258435   2.787871   1.203600
     7  N    3.224387   2.425632   2.557690   3.016204   1.348600
     8  H    3.462696   2.575742   2.282672   3.161906   2.049867
     9  C    4.485623   3.790489   3.993363   4.318541   2.442492
    10  H    4.521073   4.054084   4.410975   4.681507   2.598095
    11  C    5.331411   4.537461   4.875429   4.733665   3.220159
    12  H    5.672790   4.744389   4.926971   4.811022   3.660415
    13  H    6.280915   5.550061   5.898554   5.782391   4.159992
    14  H    4.989012   4.266256   4.817850   4.306644   2.971862
    15  C    5.473604   4.757990   4.638733   5.381997   3.648397
    16  O    5.531829   4.749011   4.364340   5.367141   3.966425
    17  N    6.607903   5.978369   5.925925   6.624020   4.749474
    18  H    6.743952   6.195375   6.305948   6.826107   4.832807
    19  C    7.780164   7.150379   6.942648   7.833016   6.042896
    20  H    7.572495   6.942346   6.580396   7.668417   6.017556
    21  C    8.565891   8.082393   7.940700   8.854676   6.918345
    22  H    8.939176   8.467179   8.451591   9.189607   7.183048
    23  H    9.472518   8.976271   8.750726   9.757126   7.878689
    24  H    8.078868   7.712756   7.577891   8.570367   6.601833
    25  C    8.862301   8.115646   7.891337   8.663056   7.015023
    26  O    9.898894   9.160371   8.856572   9.731295   8.122978
    27  N    8.781605   7.954240   7.826182   8.352891   6.807533
    28  H    7.999742   7.165820   7.125450   7.519386   5.972797
    29  C    9.932221   9.039904   8.894726   9.325146   7.948332
    30  H   10.351134   9.441435   9.176794   9.749968   8.459728
    31  C   11.085894  10.242334  10.183800  10.540236   9.039991
    32  H   10.883513  10.073956  10.130325  10.343448   8.789515
    33  H   11.961754  11.079949  11.003151  11.315307   9.919889
    34  H   11.407174  10.614847  10.519947  11.009368   9.397245
    35  C    9.642063   8.682364   8.599491   8.793856   7.654926
    36  O    8.765711   7.815230   7.843850   7.867690   6.746813
    37  N   10.634141   9.630833   9.496914   9.652579   8.713029
    38  H   11.320423  10.318701  10.109928  10.389549   9.428780
    39  C   10.798304   9.763892   9.679307   9.623515   8.947020
    40  H   10.724793   9.717824   9.753368   9.531386   8.825215
    41  H   10.164555   9.106912   8.974024   8.912354   8.421466
    42  H   11.824067  10.779738  10.662567  10.616871  10.002192
                    6          7          8          9         10
     6  O    0.000000
     7  N    2.238948   0.000000
     8  H    3.128718   0.995100   0.000000
     9  C    2.770267   1.441900   2.085564   0.000000
    10  H    2.526176   2.055561   2.855661   1.083300   0.000000
    11  C    3.313471   2.472017   3.069913   1.535200   2.146384
    12  H    4.005789   2.769346   3.059382   2.171850   3.051414
    13  H    4.081684   3.411939   4.003576   2.182812   2.481138
    14  H    2.794459   2.690676   3.450153   2.144284   2.476434
    15  C    4.180368   2.392397   2.441164   1.526000   2.145471
    16  O    4.767403   2.646492   2.211302   2.388762   3.156944
    17  N    5.049726   3.610598   3.780860   2.435500   2.620020
    18  H    4.890473   3.877162   4.273062   2.536270   2.370711
    19  C    6.436764   4.839837   4.800981   3.817092   4.032566
    20  H    6.582509   4.779418   4.538804   4.038053   4.368954
    21  C    7.145183   5.861628   5.944492   4.784811   4.675058
    22  H    7.247017   6.199704   6.428958   4.965480   4.736571
    23  H    8.170157   6.775680   6.756996   5.758974   5.719177
    24  H    6.802741   5.664249   5.777339   4.720001   4.452477
    25  C    7.429148   5.744650   5.645706   4.680826   5.074935
    26  O    8.579660   6.834770   6.650810   5.837583   6.218585
    27  N    7.166640   5.564987   5.544282   4.443441   4.955020
    28  H    6.281809   4.780377   4.861117   3.617304   4.163228
    29  C    8.321386   6.713953   6.641036   5.661081   6.247774
    30  H    8.951341   7.168153   6.953217   6.240890   6.891673
    31  C    9.261361   7.868696   7.916142   6.671195   7.084415
    32  H    8.877204   7.712578   7.893444   6.434496   6.748244
    33  H   10.164118   8.746961   8.754753   7.600660   8.069761
    34  H    9.619125   8.204133   8.237600   6.976953   7.298397
    35  C    8.024659   6.504433   6.452851   5.576158   6.290019
    36  O    7.037088   5.695196   5.763917   4.768824   5.479789
    37  N    9.138460   7.576343   7.439948   6.771363   7.547401
    38  H    9.905613   8.235209   8.027527   7.434443   8.206266
    39  C    9.360289   7.929137   7.805929   7.272541   8.102994
    40  H    9.110365   7.904229   7.911085   7.182790   7.939211
    41  H    8.926029   7.431195   7.229377   6.954540   7.868568
    42  H   10.432839   8.977528   8.816050   8.338727   9.172548
                   11         12         13         14         15
    11  C    0.000000
    12  H    1.083700   0.000000
    13  H    1.084900   1.756038   0.000000
    14  H    1.081800   1.764155   1.754590   0.000000
    15  C    2.517866   2.745076   2.812346   3.446200   0.000000
    16  O    3.325438   3.214987   3.784829   4.223204   1.202000
    17  N    3.105970   3.470483   2.901701   4.073130   1.354000
    18  H    3.041757   3.653973   2.606181   3.877852   2.026534
    19  C    4.438256   4.610700   4.157886   5.456375   2.466217
    20  H    4.861819   4.919442   4.799379   5.877288   2.541796
    21  C    5.486781   5.859395   5.063613   6.411835   3.639569
    22  H    5.454075   5.921602   4.844676   6.316180   4.050452
    23  H    6.436694   6.709681   6.008603   7.400641   4.499658
    24  H    5.664478   6.150826   5.363982   6.504840   3.693685
    25  C    4.869854   4.793851   4.447002   5.933627   3.395335
    26  O    6.065449   5.935885   5.639450   7.132759   4.479339
    27  N    4.211218   3.999871   3.700181   5.243005   3.445538
    28  H    3.237090   3.061179   2.727438   4.256212   2.857241
    29  C    5.172100   4.765833   4.636209   6.134662   4.761226
    30  H    5.907318   5.413747   5.496743   6.907884   5.170558
    31  C    6.101875   5.858399   5.353576   6.990624   5.860408
    32  H    5.728832   5.607370   4.859971   6.522079   5.835449
    33  H    6.934342   6.588972   6.214915   7.785714   6.812232
    34  H    6.612542   6.471778   5.851123   7.546405   6.026458
    35  C    4.755873   4.139777   4.327171   5.585474   4.990597
    36  O    3.744388   3.131201   3.337030   4.481686   4.480250
    37  N    5.900807   5.160814   5.552230   6.659572   6.189690
    38  H    6.693435   5.966854   6.337914   7.513331   6.689467
    39  C    6.219018   5.372318   5.989983   6.801467   6.931334
    40  H    5.968877   5.207217   5.660485   6.431724   7.033174
    41  H    5.952394   4.996442   5.914818   6.499335   6.664686
    42  H    7.300421   6.447295   7.057751   7.875507   7.944271
                   16         17         18         19         20
    16  O    0.000000
    17  N    2.245389   0.000000
    18  H    3.113346   0.995500   0.000000
    19  C    2.804481   1.451300   2.111353   0.000000
    20  H    2.418939   2.049136   2.903954   1.080300   0.000000
    21  C    4.122598   2.447029   2.588570   1.529000   2.144282
    22  H    4.754217   2.721733   2.487138   2.171501   3.053241
    23  H    4.786903   3.378627   3.627298   2.151685   2.486780
    24  H    4.181340   2.695546   2.769675   2.156194   2.465865
    25  C    3.583124   2.513574   3.064507   1.531400   2.091805
    26  O    4.495064   3.613976   4.155483   2.366439   2.636112
    27  N    3.755831   2.765742   3.169809   2.459075   3.093960
    28  H    3.349039   2.358298   2.671384   2.611527   3.279344
    29  C    4.935981   4.199624   4.558780   3.818027   4.341603
    30  H    5.110606   4.688066   5.206005   4.057153   4.352820
    31  C    6.216819   5.045388   5.164845   4.592956   5.300987
    32  H    6.379125   4.983323   4.905081   4.785370   5.633240
    33  H    7.088251   6.076329   6.225286   5.604026   6.238258
    34  H    6.377152   5.051093   5.167188   4.348419   5.057093
    35  C    5.152503   4.758654   5.080949   4.779124   5.249836
    36  O    4.796973   4.402113   4.612952   4.788164   5.315089
    37  N    6.203046   6.042703   6.413373   5.965772   6.331493
    38  H    6.608123   6.466135   6.899443   6.170463   6.468439
    39  C    6.927404   6.983850   7.320273   7.115259   7.450591
    40  H    7.193923   7.054342   7.253455   7.344881   7.797784
    41  H    6.536467   6.923263   7.343178   7.142726   7.356599
    42  H    7.886960   7.961539   8.314001   7.985965   8.294656
                   21         22         23         24         25
    21  C    0.000000
    22  H    1.087100   0.000000
    23  H    1.080200   1.754635   0.000000
    24  H    1.083900   1.761270   1.763891   0.000000
    25  C    2.503459   2.811088   2.677219   3.446239   0.000000
    26  O    2.897285   3.277835   2.588117   3.879164   1.205200
    27  N    3.545851   3.574403   3.903297   4.446710   1.340600
    28  H    3.789043   3.758183   4.375810   4.540371   2.038068
    29  C    4.794689   4.750191   4.956106   5.770017   2.435099
    30  H    5.056627   5.194144   5.030024   6.033002   2.590924
    31  C    5.167192   4.851131   5.227856   6.213406   3.219508
    32  H    5.272445   4.770376   5.499885   6.264138   3.631856
    33  H    6.199462   5.903483   6.180625   7.257185   4.167496
    34  H    4.658147   4.338422   4.546154   5.735454   2.994778
    35  C    5.933040   5.864662   6.259782   6.811501   3.638035
    36  O    5.980293   5.856577   6.499648   6.743542   3.965287
    37  N    7.124316   7.091871   7.341262   8.032467   4.719092
    38  H    7.267649   7.288978   7.338985   8.221563   4.800634
    39  C    8.347230   8.300781   8.652649   9.196178   5.997756
    40  H    8.514900   8.349973   8.913101   9.343000   6.309891
    41  H    8.488132   8.547496   8.839809   9.258776   6.163900
    42  H    9.182121   9.137220   9.402591  10.071888   6.773471
                   26         27         28         29         30
    26  O    0.000000
    27  N    2.239659   0.000000
    28  H    3.124465   0.994100   0.000000
    29  C    2.773553   1.443100   2.087018   0.000000
    30  H    2.537744   2.059277   2.845900   1.083100   0.000000
    31  C    3.309103   2.469508   3.090204   1.534300   2.146036
    32  H    3.972518   2.741527   3.067532   2.164457   3.047067
    33  H    4.100007   3.407923   4.008416   2.176960   2.487984
    34  H    2.795358   2.707331   3.494125   2.148400   2.470637
    35  C    4.187334   2.391918   2.430744   1.526200   2.150024
    36  O    4.781088   2.650193   2.206905   2.387005   3.173759
    37  N    5.042605   3.594789   3.750007   2.431625   2.604904
    38  H    4.883115   3.863716   4.242413   2.543792   2.346795
    39  C    6.423383   4.806494   4.742786   3.802269   4.020321
    40  H    6.855443   5.024057   4.814500   4.127234   4.587196
    41  H    6.661427   5.025546   4.858600   4.233213   4.371426
    42  H    7.055695   5.643472   5.693816   4.487717   4.549499
                   31         32         33         34         35
    31  C    0.000000
    32  H    1.084500   0.000000
    33  H    1.085000   1.760827   0.000000
    34  H    1.081900   1.763886   1.758671   0.000000
    35  C    2.512533   2.742971   2.784825   3.445982   0.000000
    36  O    3.290284   3.161154   3.723854   4.204514   1.204600
    37  N    3.134887   3.523240   2.921486   4.090343   1.343900
    38  H    3.119030   3.758458   2.702779   3.932150   2.021459
    39  C    4.450317   4.642453   4.161635   5.462127   2.439851
    40  H    4.582169   4.519744   4.347644   5.651836   2.685228
    41  H    5.155051   5.375245   5.004933   6.123537   2.843341
    42  H    4.960150   5.239190   4.449951   5.934729   3.303416
                   36         37         38         39         40
    36  O    0.000000
    37  N    2.239088   0.000000
    38  H    3.109295   0.993500   0.000000
    39  C    2.768292   1.448800   2.113690   0.000000
    40  H    2.657094   2.081990   2.898099   1.080400   0.000000
    41  H    2.953508   2.104612   2.736406   1.083900   1.756605
    42  H    3.800163   2.066423   2.300231   1.081500   1.760545
                   41         42
    41  H    0.000000
    42  H    1.763627   0.000000
 Stoichiometry    C12H22N4O4
 Framework group  C1[X(C12H22N4O4)]
 Deg. of freedom   120
 Full point group                 C1      NOp   1
 Largest Abelian subgroup         C1      NOp   1
 Largest concise Abelian subgroup C1      NOp   1
                         Standard orientation:                         
 ---------------------------------------------------------------------
 Center     Atomic      Atomic             Coordinates (Angstroms)
 Number     Number       Type             X           Y           Z
 ---------------------------------------------------------------------
      1          1           0       -6.697811   -0.933819   -0.726587
      2          6           0       -5.725000   -1.338267   -0.971812
      3          1           0       -5.451410   -1.043894   -1.977702
      4          1           0       -5.794626   -2.420122   -0.932651
      5          6           0       -4.731999   -0.881387    0.074603
      6          8           0       -5.009169   -0.867787    1.245776
      7          7           0       -3.518408   -0.517689   -0.387611
      8          1           0       -3.322298   -0.496564   -1.362966
      9          6           0       -2.469580   -0.059754    0.489504
     10          1           0       -2.919308    0.551281    1.262757
     11          6           0       -1.716131   -1.222620    1.150485
     12          1           0       -1.211856   -1.828432    0.406774
     13          1           0       -0.973647   -0.868665    1.857903
     14          1           0       -2.425971   -1.838209    1.686647
     15          6           0       -1.518256    0.794195   -0.343821
     16          8           0       -1.480537    0.714024   -1.542551
     17          7           0       -0.694449    1.602993    0.363642
     18          1           0       -0.837828    1.683036    1.345505
     19          6           0        0.275485    2.484637   -0.259419
     20          1           0       -0.046792    2.644233   -1.278102
     21          6           0        0.322046    3.826241    0.472545
     22          1           0        0.614829    3.695045    1.511223
     23          1           0        1.042386    4.478156    0.000371
     24          1           0       -0.654030    4.296907    0.448288
     25          6           0        1.689303    1.907296   -0.373366
     26          8           0        2.557853    2.572998   -0.878310
     27          7           0        1.896180    0.670718    0.101277
     28          1           0        1.142726    0.127183    0.454989
     29          6           0        3.166444    0.000455   -0.039125
     30          1           0        3.581091    0.254254   -1.006988
     31          6           0        4.160712    0.416303    1.052927
     32          1           0        3.773366    0.158323    2.032493
     33          1           0        5.118811   -0.075470    0.920904
     34          1           0        4.314379    1.486169    1.005156
     35          6           0        2.897743   -1.500271    0.030933
     36          8           0        1.913188   -1.937673    0.569813
     37          7           0        3.847450   -2.287410   -0.502488
     38          1           0        4.579877   -1.869292   -1.027626
     39          6           0        3.729377   -3.731390   -0.501392
     40          1           0        3.482471   -4.080396    0.490826
     41          1           0        2.960172   -4.069133   -1.186296
     42          1           0        4.678521   -4.155991   -0.798850
 ---------------------------------------------------------------------
 Rotational constants (GHZ):      0.4359048      0.1731907      0.1354084
 Leave Link  202 at Tue Jul  5 10:17:19 2016, MaxMem=   33554432 cpu:       0.0
 (Enter /home/kanhaya91/Software/g09/l301.exe)
 Standard basis: 6-31G(d) (6D, 7F)
 Ernie: Thresh=  0.10000D-02 Tol=  0.10000D-05 Strict=F.
 There are   344 symmetry adapted basis functions of A   symmetry.
 Integral buffers will be    131072 words long.
 Raffenetti 1 integral format.
 Two-electron integral symmetry is turned on.
   344 basis functions,   648 primitive gaussians,   344 cartesian basis functions
    77 alpha electrons       77 beta electrons
       nuclear repulsion energy      1646.8857374555 Hartrees.
 IExCor=    0 DFT=F Ex=HF Corr=None ExCW=0 ScaHFX=  1.000000
 ScaDFX=  1.000000  1.000000  1.000000  1.000000 ScalE2=  1.000000  1.000000
 IRadAn=      0 IRanWt=     -1 IRanGd=            0 ICorTp=0
 NAtoms=   42 NActive=   42 NUniq=   42 SFac= 7.50D-01 NAtFMM=   80 NAOKFM=F Big=F
 Leave Link  301 at Tue Jul  5 10:17:19 2016, MaxMem=   33554432 cpu:       0.1
 (Enter /home/kanhaya91/Software/g09/l302.exe)
 NPDir=0 NMtPBC=     1 NCelOv=     1 NCel=       1 NClECP=     1 NCelD=      1
         NCelK=      1 NCelE2=     1 NClLst=     1 CellRange=     0.0.
 One-electron integrals computed using PRISM.
 NBasis=   344 RedAO= T  NBF=   344
 NBsUse=   344 1.00D-06 NBFU=   344
 Leave Link  302 at Tue Jul  5 10:17:19 2016, MaxMem=   33554432 cpu:       0.3
 (Enter /home/kanhaya91/Software/g09/l303.exe)
 DipDrv:  MaxL=1.
 Leave Link  303 at Tue Jul  5 10:17:20 2016, MaxMem=   33554432 cpu:       0.1
 (Enter /home/kanhaya91/Software/g09/l401.exe)
 Harris functional with IExCor=  205 diagonalized for initial guess.
 ExpMin= 1.61D-01 ExpMax= 5.48D+03 ExpMxC= 8.25D+02 IAcc=1 IRadAn=         1 AccDes= 0.00D+00
 HarFok:  IExCor=  205 AccDes= 0.00D+00 IRadAn=         1 IDoV= 1
 ScaDFX=  1.000000  1.000000  1.000000  1.000000
 FoFCou: FMM=F IPFlag=           0 FMFlag=      100000 FMFlg1=           0
         NFxFlg=           0 DoJE=T BraDBF=F KetDBF=T FulRan=T
         Omega=  0.000000  0.000000  1.000000  0.000000  0.000000 ICntrl=     500 IOpCl=  0
         NMat0=    1 NMatS0=    1 NMatT0=    0 NMatD0=    1 NMtDS0=    0 NMtDT0=    0
         I1Cent=           4 NGrid=           0.
 Petite list used in FoFCou.
 Harris En= -985.890294939359    
 Initial guess orbital symmetries:
       Occupied  (A) (A) (A) (A) (A) (A) (A) (A) (A) (A) (A) (A)
                 (A) (A) (A) (A) (A) (A) (A) (A) (A) (A) (A) (A)
                 (A) (A) (A) (A) (A) (A) (A) (A) (A) (A) (A) (A)
                 (A) (A) (A) (A) (A) (A) (A) (A) (A) (A) (A) (A)
                 (A) (A) (A) (A) (A) (A) (A) (A) (A) (A) (A) (A)
                 (A) (A) (A) (A) (A) (A) (A) (A) (A) (A) (A) (A)
                 (A) (A) (A) (A) (A)
       Virtual   (A) (A) (A) (A) (A) (A) (A) (A) (A) (A) (A) (A)
                 (A) (A) (A) (A) (A) (A) (A) (A) (A) (A) (A) (A)
                 (A) (A) (A) (A) (A) (A) (A) (A) (A) (A) (A) (A)
                 (A) (A) (A) (A) (A) (A) (A) (A) (A) (A) (A) (A)
                 (A) (A) (A) (A) (A) (A) (A) (A) (A) (A) (A) (A)
                 (A) (A) (A) (A) (A) (A) (A) (A) (A) (A) (A) (A)
                 (A) (A) (A) (A) (A) (A) (A) (A) (A) (A) (A) (A)
                 (A) (A) (A) (A) (A) (A) (A) (A) (A) (A) (A) (A)
                 (A) (A) (A) (A) (A) (A) (A) (A) (A) (A) (A) (A)
                 (A) (A) (A) (A) (A) (A) (A) (A) (A) (A) (A) (A)
                 (A) (A) (A) (A) (A) (A) (A) (A) (A) (A) (A) (A)
                 (A) (A) (A) (A) (A) (A) (A) (A) (A) (A) (A) (A)
                 (A) (A) (A) (A) (A) (A) (A) (A) (A) (A) (A) (A)
                 (A) (A) (A) (A) (A) (A) (A) (A) (A) (A) (A) (A)
                 (A) (A) (A) (A) (A) (A) (A) (A) (A) (A) (A) (A)
                 (A) (A) (A) (A) (A) (A) (A) (A) (A) (A) (A) (A)
                 (A) (A) (A) (A) (A) (A) (A) (A) (A) (A) (A) (A)
                 (A) (A) (A) (A) (A) (A) (A) (A) (A) (A) (A) (A)
                 (A) (A) (A) (A) (A) (A) (A) (A) (A) (A) (A) (A)
                 (A) (A) (A) (A) (A) (A) (A) (A) (A) (A) (A) (A)
                 (A) (A) (A) (A) (A) (A) (A) (A) (A) (A) (A) (A)
                 (A) (A) (A) (A) (A) (A) (A) (A) (A) (A) (A) (A)
                 (A) (A) (A)
 The electronic state of the initial guess is 1-A.
 Leave Link  401 at Tue Jul  5 10:17:23 2016, MaxMem=   33554432 cpu:       3.4
 (Enter /home/kanhaya91/Software/g09/l502.exe)
 Closed shell SCF:
 Requested convergence on RMS density matrix=1.00D-06 within 128 cycles.
 Requested convergence on MAX density matrix=1.00D-04.
 Requested convergence on             energy=1.00D-04.
 No special actions if energy rises.
 Using DIIS extrapolation, IDIIS=  1040.
 Integral symmetry usage will be decided dynamically.
 IEnd=      377834 IEndB=      377834 NGot=    33554432 MDV=    33311919
 LenX=    33311919 LenY=    33193142
 Fock matrices will be formed incrementally for  20 cycles.
 Integral accuracy reduced to 1.0D-05 until final iterations.

 Cycle   1  Pass 0  IDiag  1:
 FoFCou: FMM=F IPFlag=           0 FMFlag=      100000 FMFlg1=           0
         NFxFlg=           0 DoJE=F BraDBF=F KetDBF=F FulRan=T
         Omega=  0.000000  0.000000  1.000000  0.000000  0.000000 ICntrl=       0 IOpCl=  0
         NMat0=    1 NMatS0=    1 NMatT0=    0 NMatD0=    1 NMtDS0=    0 NMtDT0=    0
         I1Cent=           0 NGrid=           0.
 Symmetry not used in FoFCou.
 E= -983.674706025686    
 DIIS: error= 4.20D-02 at cycle   1 NSaved=   1.
 NSaved= 1 IEnMin= 1 EnMin= -983.674706025686     IErMin= 1 ErrMin= 4.20D-02
 ErrMax= 4.20D-02 EMaxC= 1.00D-01 BMatC= 1.47D+00 BMatP= 1.47D+00
 IDIUse=3 WtCom= 5.80D-01 WtEn= 4.20D-01
 Coeff-Com:  0.100D+01
 Coeff-En:   0.100D+01
 Coeff:      0.100D+01
 Gap=     0.564 Goal=   None    Shift=    0.000
 GapD=    0.564 DampG=2.000 DampE=0.500 DampFc=1.0000 IDamp=-1.
 RMSDP=3.55D-03 MaxDP=1.13D-01              OVMax= 1.16D-01

 Cycle   2  Pass 0  IDiag  1:
 RMSU=  2.48D-03    CP:  9.67D-01
 E= -984.424201243726     Delta-E=       -0.749495218040 Rises=F Damp=F
 DIIS: error= 1.26D-02 at cycle   2 NSaved=   2.
 NSaved= 2 IEnMin= 2 EnMin= -984.424201243726     IErMin= 2 ErrMin= 1.26D-02
 ErrMax= 1.26D-02 EMaxC= 1.00D-01 BMatC= 1.85D-01 BMatP= 1.47D+00
 IDIUse=3 WtCom= 8.74D-01 WtEn= 1.26D-01
 Coeff-Com:  0.194D+00 0.806D+00
 Coeff-En:   0.000D+00 0.100D+01
 Coeff:      0.170D+00 0.830D+00
 Gap=     0.635 Goal=   None    Shift=    0.000
 RMSDP=1.34D-03 MaxDP=4.70D-02 DE=-7.49D-01 OVMax= 4.38D-02

 Cycle   3  Pass 0  IDiag  1:
 RMSU=  7.51D-04    CP:  9.73D-01  7.70D-01
 E= -984.550029629310     Delta-E=       -0.125828385584 Rises=F Damp=F
 DIIS: error= 4.82D-03 at cycle   3 NSaved=   3.
 NSaved= 3 IEnMin= 3 EnMin= -984.550029629310     IErMin= 3 ErrMin= 4.82D-03
 ErrMax= 4.82D-03 EMaxC= 1.00D-01 BMatC= 2.00D-02 BMatP= 1.85D-01
 IDIUse=3 WtCom= 9.52D-01 WtEn= 4.82D-02
 Coeff-Com: -0.160D-01 0.211D+00 0.805D+00
 Coeff-En:   0.000D+00 0.000D+00 0.100D+01
 Coeff:     -0.152D-01 0.201D+00 0.814D+00
 Gap=     0.561 Goal=   None    Shift=    0.000
 RMSDP=3.61D-04 MaxDP=1.88D-02 DE=-1.26D-01 OVMax= 2.17D-02

 Cycle   4  Pass 0  IDiag  1:
 RMSU=  1.94D-04    CP:  9.73D-01  8.29D-01  8.97D-01
 E= -984.564177861963     Delta-E=       -0.014148232653 Rises=F Damp=F
 DIIS: error= 1.23D-03 at cycle   4 NSaved=   4.
 NSaved= 4 IEnMin= 4 EnMin= -984.564177861963     IErMin= 4 ErrMin= 1.23D-03
 ErrMax= 1.23D-03 EMaxC= 1.00D-01 BMatC= 1.52D-03 BMatP= 2.00D-02
 IDIUse=3 WtCom= 9.88D-01 WtEn= 1.23D-02
 Coeff-Com: -0.112D-01 0.328D-01 0.270D+00 0.708D+00
 Coeff-En:   0.000D+00 0.000D+00 0.000D+00 0.100D+01
 Coeff:     -0.110D-01 0.324D-01 0.267D+00 0.712D+00
 Gap=     0.560 Goal=   None    Shift=    0.000
 RMSDP=1.21D-04 MaxDP=3.62D-03 DE=-1.41D-02 OVMax= 4.60D-03

 Cycle   5  Pass 0  IDiag  1:
 RMSU=  5.57D-05    CP:  9.72D-01  8.29D-01  9.72D-01  8.42D-01
 E= -984.565552334605     Delta-E=       -0.001374472642 Rises=F Damp=F
 DIIS: error= 4.78D-04 at cycle   5 NSaved=   5.
 NSaved= 5 IEnMin= 5 EnMin= -984.565552334605     IErMin= 5 ErrMin= 4.78D-04
 ErrMax= 4.78D-04 EMaxC= 1.00D-01 BMatC= 6.06D-05 BMatP= 1.52D-03
 IDIUse=3 WtCom= 9.95D-01 WtEn= 4.78D-03
 Coeff-Com:  0.241D-02-0.191D-01-0.924D-01-0.754D-01 0.118D+01
 Coeff-En:   0.000D+00 0.000D+00 0.000D+00 0.000D+00 0.100D+01
 Coeff:      0.240D-02-0.190D-01-0.919D-01-0.750D-01 0.118D+01
 Gap=     0.561 Goal=   None    Shift=    0.000
 RMSDP=5.65D-05 MaxDP=1.42D-03 DE=-1.37D-03 OVMax= 4.36D-03

 Cycle   6  Pass 0  IDiag  1:
 RMSU=  1.72D-05    CP:  9.72D-01  8.29D-01  1.00D+00  9.53D-01  1.36D+00
 E= -984.565729684337     Delta-E=       -0.000177349732 Rises=F Damp=F
 DIIS: error= 1.32D-04 at cycle   6 NSaved=   6.
 NSaved= 6 IEnMin= 6 EnMin= -984.565729684337     IErMin= 6 ErrMin= 1.32D-04
 ErrMax= 1.32D-04 EMaxC= 1.00D-01 BMatC= 1.20D-05 BMatP= 6.06D-05
 IDIUse=3 WtCom= 9.99D-01 WtEn= 1.32D-03
 Coeff-Com:  0.157D-02-0.751D-02-0.454D-01-0.102D+00 0.238D+00 0.916D+00
 Coeff-En:   0.000D+00 0.000D+00 0.000D+00 0.000D+00 0.000D+00 0.100D+01
 Coeff:      0.157D-02-0.750D-02-0.454D-01-0.102D+00 0.237D+00 0.916D+00
 Gap=     0.562 Goal=   None    Shift=    0.000
 RMSDP=2.14D-05 MaxDP=5.33D-04 DE=-1.77D-04 OVMax= 1.41D-03

 Cycle   7  Pass 0  IDiag  1:
 RMSU=  5.91D-06    CP:  9.72D-01  8.29D-01  1.01D+00  9.74D-01  1.55D+00
                    CP:  1.17D+00
 E= -984.565754427512     Delta-E=       -0.000024743175 Rises=F Damp=F
 DIIS: error= 4.40D-05 at cycle   7 NSaved=   7.
 NSaved= 7 IEnMin= 7 EnMin= -984.565754427512     IErMin= 7 ErrMin= 4.40D-05
 ErrMax= 4.40D-05 EMaxC= 1.00D-01 BMatC= 1.49D-06 BMatP= 1.20D-05
 IDIUse=1 WtCom= 1.00D+00 WtEn= 0.00D+00
 Coeff-Com: -0.448D-03 0.349D-02 0.193D-01 0.998D-02-0.167D+00-0.112D+00
 Coeff-Com:  0.125D+01
 Coeff:     -0.448D-03 0.349D-02 0.193D-01 0.998D-02-0.167D+00-0.112D+00
 Coeff:      0.125D+01
 Gap=     0.562 Goal=   None    Shift=    0.000
 RMSDP=1.05D-05 MaxDP=3.01D-04 DE=-2.47D-05 OVMax= 8.01D-04

 Cycle   8  Pass 0  IDiag  1:
 RMSU=  2.43D-06    CP:  9.72D-01  8.28D-01  1.01D+00  9.76D-01  1.63D+00
                    CP:  1.40D+00  1.49D+00
 E= -984.565759037856     Delta-E=       -0.000004610344 Rises=F Damp=F
 DIIS: error= 1.78D-05 at cycle   8 NSaved=   8.
 NSaved= 8 IEnMin= 8 EnMin= -984.565759037856     IErMin= 8 ErrMin= 1.78D-05
 ErrMax= 1.78D-05 EMaxC= 1.00D-01 BMatC= 2.27D-07 BMatP= 1.49D-06
 IDIUse=1 WtCom= 1.00D+00 WtEn= 0.00D+00
 Coeff-Com: -0.271D-03 0.161D-02 0.965D-02 0.114D-01-0.565D-01-0.139D+00
 Coeff-Com:  0.249D+00 0.924D+00
 Coeff:     -0.271D-03 0.161D-02 0.965D-02 0.114D-01-0.565D-01-0.139D+00
 Coeff:      0.249D+00 0.924D+00
 Gap=     0.562 Goal=   None    Shift=    0.000
 RMSDP=3.14D-06 MaxDP=1.21D-04 DE=-4.61D-06 OVMax= 2.43D-04

 Initial convergence to 1.0D-05 achieved.  Increase integral accuracy.
 Cycle   9  Pass 1  IDiag  1:
 E= -984.565767248377     Delta-E=       -0.000008210521 Rises=F Damp=F
 DIIS: error= 1.14D-05 at cycle   1 NSaved=   1.
 NSaved= 1 IEnMin= 1 EnMin= -984.565767248377     IErMin= 1 ErrMin= 1.14D-05
 ErrMax= 1.14D-05 EMaxC= 1.00D-01 BMatC= 7.44D-08 BMatP= 7.44D-08
 IDIUse=1 WtCom= 1.00D+00 WtEn= 0.00D+00
 Coeff-Com:  0.100D+01
 Coeff:      0.100D+01
 Gap=     0.562 Goal=   None    Shift=    0.000
 RMSDP=3.14D-06 MaxDP=1.21D-04 DE=-8.21D-06 OVMax= 4.62D-05

 Cycle  10  Pass 1  IDiag  1:
 RMSU=  2.33D-06    CP:  1.00D+00
 E= -984.565767324253     Delta-E=       -0.000000075876 Rises=F Damp=F
 DIIS: error= 5.10D-06 at cycle   2 NSaved=   2.
 NSaved= 2 IEnMin= 2 EnMin= -984.565767324253     IErMin= 2 ErrMin= 5.10D-06
 ErrMax= 5.10D-06 EMaxC= 1.00D-01 BMatC= 1.23D-08 BMatP= 7.44D-08
 IDIUse=1 WtCom= 1.00D+00 WtEn= 0.00D+00
 Coeff-Com:  0.157D+00 0.843D+00
 Coeff:      0.157D+00 0.843D+00
 Gap=     0.562 Goal=   None    Shift=    0.000
 RMSDP=4.40D-07 MaxDP=2.59D-05 DE=-7.59D-08 OVMax= 3.51D-05

 SCF Done:  E(RHF) =  -984.565767324     A.U. after   10 cycles
             Convg  =    0.4402D-06             -V/T =  2.0015
 KE= 9.831013879411D+02 PE=-5.601710707533D+03 EE= 1.987157814812D+03
 Leave Link  502 at Tue Jul  5 10:19:11 2016, MaxMem=   33554432 cpu:     107.8
 (Enter /home/kanhaya91/Software/g09/l801.exe)
 Range of M.O.s used for correlation:     1   344
 NBasis=   344 NAE=    77 NBE=    77 NFC=     0 NFV=     0
 NROrb=    344 NOA=    77 NOB=    77 NVA=   267 NVB=   267
 Leave Link  801 at Tue Jul  5 10:19:11 2016, MaxMem=   33554432 cpu:       0.0
 (Enter /home/kanhaya91/Software/g09/l1101.exe)
 Using compressed storage, NAtomX=    42.
 Will process  43 centers per pass.
 Leave Link 1101 at Tue Jul  5 10:19:12 2016, MaxMem=   33554432 cpu:       0.6
 (Enter /home/kanhaya91/Software/g09/l1102.exe)
 Symmetrizing basis deriv contribution to polar:
 IMax=3 JMax=2 DiffMx= 0.00D+00
 Leave Link 1102 at Tue Jul  5 10:19:12 2016, MaxMem=   33554432 cpu:       0.1
 (Enter /home/kanhaya91/Software/g09/l1110.exe)
 Forming Gx(P) for the SCF density, NAtomX=    42.
 Integral derivatives from FoFDir/FoFCou, PRISM(SPDF).
 Do as many integral derivatives as possible in FoFDir.
 G2DrvN: MDV=      33553992.
 G2DrvN: will do    43 centers at a time, making    1 passes doing MaxLOS=2.
 Calling FoFCou, ICntrl=  3107 FMM=F I1Cent=   0 AccDes= 0.00D+00.
 FoFCou: FMM=F IPFlag=           0 FMFlag=      100000 FMFlg1=           0
         NFxFlg=           0 DoJE=F BraDBF=F KetDBF=F FulRan=T
         Omega=  0.000000  0.000000  1.000000  0.000000  0.000000 ICntrl=    3107 IOpCl=  0
         NMat0=    1 NMatS0=    1 NMatT0=    0 NMatD0=    1 NMtDS0=    0 NMtDT0=    0
         I1Cent=           0 NGrid=           0.
 Symmetry not used in FoFCou.
 FoFDir/FoFCou used for L=0 through L=2.
 End of G2Drv Frequency-dependent properties file   721 does not exist.
 End of G2Drv Frequency-dependent properties file   722 does not exist.
 Leave Link 1110 at Tue Jul  5 10:21:15 2016, MaxMem=   33554432 cpu:     122.3
 (Enter /home/kanhaya91/Software/g09/l1002.exe)
 Minotr:  Closed shell wavefunction.
          IDoAtm=111111111111111111111111111111111111111111
          Direct CPHF calculation.
          Differentiating once with respect to nuclear coordinates.
          Requested convergence is 1.0D-06 RMS, and 1.0D-05 maximum.
          Secondary convergence is 1.0D-12 RMS, and 1.0D-12 maximum.
          NewPWx=T KeepS1=F KeepF1=F KeepIn=T MapXYZ=F SortEE=F KeepMc=T.
          MDV=      33554008 using IRadAn=       2.
          Solving linear equations simultaneously, MaxMat=       0.
 Integrals replicated using symmetry in FoFDir.
 MinBra= 0 MaxBra= 2 Meth= 1.
 IRaf=       0 NMat= 129 IRICut=     322 DoRegI=T DoRafI=T ISym2E= 2 JSym2E=2.
          There are   129 degrees of freedom in the 1st order CPHF.  IDoFFX=5.
    123 vectors produced by pass  0 Test12= 2.06D-10 1.00D-07 XBig12= 9.80D-02 6.15D-02.
 AX will form   123 AO Fock derivatives at one time.
    123 vectors produced by pass  1 Test12= 2.06D-10 1.00D-07 XBig12= 6.59D-03 2.33D-02.
    123 vectors produced by pass  2 Test12= 2.06D-10 1.00D-07 XBig12= 8.86D-05 1.75D-03.
