 Entering Gaussian System, Link 0=g09
 Initial command:
 /home/kanhaya91/Software/g09/l1.exe /tmp/Gau-27631.inp -scrdir=/tmp/
 Entering Link 1 = /home/kanhaya91/Software/g09/l1.exe PID=     27633.
  
 Copyright (c) 1988,1990,1992,1993,1995,1998,2003,2009, Gaussian, Inc.
                  All Rights Reserved.
  
 This is part of the Gaussian(R) 09 program.  It is based on
 the Gaussian(R) 03 system (copyright 2003, Gaussian, Inc.),
 the Gaussian(R) 98 system (copyright 1998, Gaussian, Inc.),
 the Gaussian(R) 94 system (copyright 1995, Gaussian, Inc.),
 the Gaussian 92(TM) system (copyright 1992, Gaussian, Inc.),
 the Gaussian 90(TM) system (copyright 1990, Gaussian, Inc.),
 the Gaussian 88(TM) system (copyright 1988, Gaussian, Inc.),
 the Gaussian 86(TM) system (copyright 1986, Carnegie Mellon
 University), and the Gaussian 82(TM) system (copyright 1983,
 Carnegie Mellon University). Gaussian is a federally registered
 trademark of Gaussian, Inc.
  
 This software contains proprietary and confidential information,
 including trade secrets, belonging to Gaussian, Inc.
  
 This software is provided under written license and may be
 used, copied, transmitted, or stored only in accord with that
 written license.
  
 The following legend is applicable only to US Government
 contracts under FAR:
  
                    RESTRICTED RIGHTS LEGEND
  
 Use, reproduction and disclosure by the US Government is
 subject to restrictions as set forth in subparagraphs (a)
 and (c) of the Commercial Computer Software - Restricted
 Rights clause in FAR 52.227-19.
  
 Gaussian, Inc.
 340 Quinnipiac St., Bldg. 40, Wallingford CT 06492
  
  
 ---------------------------------------------------------------
 Warning -- This program may not be used in any manner that
 competes with the business of Gaussian, Inc. or will provide
 assistance to any competitor of Gaussian, Inc.  The licensee
 of this program is prohibited from giving any competitor of
 Gaussian, Inc. access to this program.  By using this program,
 the user acknowledges that Gaussian, Inc. is engaged in the
 business of creating and licensing software in the field of
 computational chemistry and represents and warrants to the
 licensee that it is not a competitor of Gaussian, Inc. and that
 it will not use this program in any manner prohibited above.
 ---------------------------------------------------------------
  

 Cite this work as:
 Gaussian 09, Revision A.02,
 M. J. Frisch, G. W. Trucks, H. B. Schlegel, G. E. Scuseria, 
 M. A. Robb, J. R. Cheeseman, G. Scalmani, V. Barone, B. Mennucci, 
 G. A. Petersson, H. Nakatsuji, M. Caricato, X. Li, H. P. Hratchian, 
 A. F. Izmaylov, J. Bloino, G. Zheng, J. L. Sonnenberg, M. Hada, 
 M. Ehara, K. Toyota, R. Fukuda, J. Hasegawa, M. Ishida, T. Nakajima, 
 Y. Honda, O. Kitao, H. Nakai, T. Vreven, J. A. Montgomery, Jr., 
 J. E. Peralta, F. Ogliaro, M. Bearpark, J. J. Heyd, E. Brothers, 
 K. N. Kudin, V. N. Staroverov, R. Kobayashi, J. Normand, 
 K. Raghavachari, A. Rendell, J. C. Burant, S. S. Iyengar, J. Tomasi, 
 M. Cossi, N. Rega, J. M. Millam, M. Klene, J. E. Knox, J. B. Cross, 
 V. Bakken, C. Adamo, J. Jaramillo, R. Gomperts, R. E. Stratmann, 
 O. Yazyev, A. J. Austin, R. Cammi, C. Pomelli, J. W. Ochterski, 
 R. L. Martin, K. Morokuma, V. G. Zakrzewski, G. A. Voth, 
 P. Salvador, J. J. Dannenberg, S. Dapprich, A. D. Daniels, 
 O. Farkas, J. B. Foresman, J. V. Ortiz, J. Cioslowski, 
 and D. J. Fox, Gaussian, Inc., Wallingford CT, 2009.
 
 ******************************************
 Gaussian 09:  EM64L-G09RevA.02 11-Jun-2009
                 5-Jul-2016 
 ******************************************
 %chk=structure.chk
 -------------------------------------------------------
 #P hf/6-31G* Opt=(Tight,CalcFC) Freq SCF(Conver=6) Test
 -------------------------------------------------------
 1/7=10,10=4,18=20,19=15,38=1/1,3;
 2/9=110,12=2,17=6,18=5,40=1/2;
 3/5=1,6=6,7=1,11=9,16=1,25=1,30=1,71=2/1,2,3;
 4//1;
 5/5=2,6=6,38=5/2;
 8/6=4,10=90,11=11/1;
 11/6=1,8=1,9=11,15=111,16=1/1,2,10;
 10/6=1,7=6,13=1/2;
 6/7=2,8=2,9=2,10=2,28=1/1;
 7/10=1,18=20,25=1/1,2,3,16;
 1/7=10,10=4,18=20,19=15/3(2);
 2/9=110/2;
 99//99;
 2/9=110/2;
 3/5=1,6=6,7=1,11=9,16=1,25=1,30=1,71=1/1,2,3;
 4/5=5,16=3/1;
 5/5=2,6=6,38=5/2;
 7//1,2,3,16;
 1/7=10,18=20,19=15/3(-5);
 2/9=110/2;
 6/7=2,8=2,9=2,10=2,19=2,28=1/1;
 99/9=1/99;
 Leave Link    1 at Tue Jul  5 04:29:28 2016, MaxMem=          0 cpu:       0.1
 (Enter /home/kanhaya91/Software/g09/l101.exe)
 -----------------------
 Optimization of phi 520
 -----------------------
 Symbolic Z-matrix:
 Charge =  0 Multiplicity = 1
 H
 C                    1    b2
 H                    2    b3       1    a3
 H                    2    b4       3    a4       1    t4       0
 C                    2    b5       4    a5       1    t5       0
 O                    5    b6       2    a6       1    t6       0
 N                    5    b7       2    a7       1    t7       0
 H                    7    b8       5    a8       2    t8       0
 C                    7    b9       5    a9       2    t9       0
 H                    9    b10      7    a10      5    t10      0
 C                    9    b11      7    a11      5    t11      0
 H                    11   b12      9    a12      7    t12      0
 H                    11   b13      9    a13      7    t13      0
 H                    11   b14      9    a14      7    t14      0
 C                    9    b15      7    a15      5    t15      0
 O                    15   b16      9    a16      7    t16      0
 N                    15   b17      9    a17      7    t17      0
 H                    17   b18      15   a18      9    t18      0
 C                    17   b19      15   a19      9    t19      0
 H                    19   b20      17   a20      15   t20      0
 C                    19   b21      17   a21      15   t21      0
 H                    21   b22      19   a22      17   t22      0
 H                    21   b23      19   a23      17   t23      0
 H                    21   b24      19   a24      17   t24      0
 C                    19   b25      17   a25      15   t25      0
 O                    25   b26      19   a26      17   t26      0
 N                    25   b27      19   a27      17   t27      0
 H                    27   b28      25   a28      19   t28      0
 C                    27   b29      25   a29      19   t29      0
 H                    29   b30      27   a30      25   t30      0
 C                    29   b31      27   a31      25   t31      0
 H                    31   b32      29   a32      27   t32      0
 H                    31   b33      29   a33      27   t33      0
 H                    31   b34      29   a34      27   t34      0
 C                    29   b35      27   a35      25   t35      0
 O                    35   b36      29   a36      27   t36      0
 N                    35   b37      29   a37      27   t37      0
 H                    37   b38      35   a38      29   t38      0
 C                    37   b39      35   a39      29   t39      0
 H                    39   b40      37   a40      35   t40      0
 H                    39   b41      37   a41      35   t41      0
 H                    39   b42      37   a42      35   t42      0
       Variables:
  b2                    1.0808                   
  b3                    1.0836                   
  a3                  110.1823                   
  b4                    1.0853                   
  a4                  108.6722                   
  t4                  118.4187                   
  b5                    1.5083                   
  a5                  108.2308                   
  t5                  117.3811                   
  b6                    1.2062                   
  a6                  122.2165                   
  t6                   42.1545                   
  b7                    1.3574                   
  a7                  117.0425                   
  t7                  222.5004                   
  b8                    0.9951                   
  a8                  117.9645                   
  t8                   -8.2378                   
  b9                    1.4537                   
  a9                  120.86                     
  t9                  193.6816                   
  b10                   1.0809                   
  a10                 108.4604                   
  t10                  33.026                    
  b11                   1.5289                   
  a11                 109.951                    
  t11                 152.5502                   
  b12                   1.0866                   
  a12                 111.1468                   
  t12                  60.2221                   
  b13                   1.0806                   
  a13                 109.6303                   
  t13                 179.8981                   
  b14                   1.0849                   
  a14                 110.4268                   
  t14                 -60.3199                   
  b15                   1.5321                   
  a15                 115.3442                   
  t15                 277.4416                   
  b16                   1.2009                   
  a16                 118.0415                   
  t16                -190.451                    
  b17                   1.3518                   
  a17                 118.4924                   
  t17                  -8.3075                   
  b18                   0.9947                   
  a18                 117.5437                   
  t18                 355.1812                   
  b19                   1.4523                   
  a19                 122.4669                   
  t19                 520.                       
  b20                   1.0798                   
  a20                 106.3112                   
  t20                   4.3149                   
  b21                   1.5316                   
  a21                 111.03                     
  t21                 122.4281                   
  b22                   1.0866                   
  a22                 110.8595                   
  t22                  61.4743                   
  b23                   1.0805                   
  a23                 110.4784                   
  t23                -178.3576                   
  b24                   1.0834                   
  a24                 109.3621                   
  t24                 -57.9049                   
  b25                   1.5324                   
  a25                 115.0318                   
  t25                 247.101                    
  b26                   1.2031                   
  a26                 118.6854                   
  t26                 182.371                    
  b27                   1.3496                   
  a27                 118.4244                   
  t27                   0.                       
  b28                   0.9962                   
  a28                 118.7564                   
  t28                  21.4059                   
  b29                   1.4595                   
  a29                 120.3565                   
  t29                 180.3793                   
  b30                   1.0838                   
  a30                 108.6293                   
  t30                 -46.3445                   
  b31                   1.527                    
  a31                 111.9646                   
  t31                  74.0832                   
  b32                   1.0818                   
  a32                 109.9777                   
  t32                  61.2327                   
  b33                   1.0858                   
  a33                 110.1417                   
  t33                 180.7185                   
  b34                   1.0808                   
  a34                 109.9183                   
  t34                 -59.7734                   
  b35                   1.5298                   
  a35                 107.2872                   
  t35                 194.6198                   
  b36                   1.204                    
  a36                 121.2175                   
  t36                 -74.519                    
  b37                   1.3443                   
  a37                 115.788                    
  t37                 106.4341                   
  b38                   0.9936                   
  a38                 118.1046                   
  t38                 -11.4674                   
  b39                   1.4483                   
  a39                 121.1258                   
  t39                 187.6182                   
  b40                   1.0819                   
  a40                 108.6664                   
  t40                -171.8523                   
  b41                   1.0803                   
  a41                 109.6763                   
  t41                 -52.8771                   
  b42                   1.0835                   
  a42                 111.259                    
  t42                -292.3414                   
 
 NAtoms=     42 NQM=     42 NQMF=      0 NMic=      0 NMicF=      0 NTot=     42.
                    Isotopes and Nuclear Properties:
 (Nuclear quadrupole moments (NQMom) in fm**2, nuclear magnetic moments (NMagM)
  in nuclear magnetons)

  Atom         1           2           3           4           5           6           7           8           9          10
 IAtWgt=           1          12           1           1          12          16          14           1          12           1
 AtmWgt=   1.0078250  12.0000000   1.0078250   1.0078250  12.0000000  15.9949146  14.0030740   1.0078250  12.0000000   1.0078250
 NucSpn=           1           0           1           1           0           0           2           1           0           1
 AtZEff=   0.0000000   0.0000000   0.0000000   0.0000000   0.0000000   0.0000000   0.0000000   0.0000000   0.0000000   0.0000000
 NQMom=    0.0000000   0.0000000   0.0000000   0.0000000   0.0000000   0.0000000   2.0440000   0.0000000   0.0000000   0.0000000
 NMagM=    2.7928460   0.0000000   2.7928460   2.7928460   0.0000000   0.0000000   0.4037610   2.7928460   0.0000000   2.7928460

  Atom        11          12          13          14          15          16          17          18          19          20
 IAtWgt=          12           1           1           1          12          16          14           1          12           1
 AtmWgt=  12.0000000   1.0078250   1.0078250   1.0078250  12.0000000  15.9949146  14.0030740   1.0078250  12.0000000   1.0078250
 NucSpn=           0           1           1           1           0           0           2           1           0           1
 AtZEff=   0.0000000   0.0000000   0.0000000   0.0000000   0.0000000   0.0000000   0.0000000   0.0000000   0.0000000   0.0000000
 NQMom=    0.0000000   0.0000000   0.0000000   0.0000000   0.0000000   0.0000000   2.0440000   0.0000000   0.0000000   0.0000000
 NMagM=    0.0000000   2.7928460   2.7928460   2.7928460   0.0000000   0.0000000   0.4037610   2.7928460   0.0000000   2.7928460

  Atom        21          22          23          24          25          26          27          28          29          30
 IAtWgt=          12           1           1           1          12          16          14           1          12           1
 AtmWgt=  12.0000000   1.0078250   1.0078250   1.0078250  12.0000000  15.9949146  14.0030740   1.0078250  12.0000000   1.0078250
 NucSpn=           0           1           1           1           0           0           2           1           0           1
 AtZEff=   0.0000000   0.0000000   0.0000000   0.0000000   0.0000000   0.0000000   0.0000000   0.0000000   0.0000000   0.0000000
 NQMom=    0.0000000   0.0000000   0.0000000   0.0000000   0.0000000   0.0000000   2.0440000   0.0000000   0.0000000   0.0000000
 NMagM=    0.0000000   2.7928460   2.7928460   2.7928460   0.0000000   0.0000000   0.4037610   2.7928460   0.0000000   2.7928460

  Atom        31          32          33          34          35          36          37          38          39          40
 IAtWgt=          12           1           1           1          12          16          14           1          12           1
 AtmWgt=  12.0000000   1.0078250   1.0078250   1.0078250  12.0000000  15.9949146  14.0030740   1.0078250  12.0000000   1.0078250
 NucSpn=           0           1           1           1           0           0           2           1           0           1
 AtZEff=   0.0000000   0.0000000   0.0000000   0.0000000   0.0000000   0.0000000   0.0000000   0.0000000   0.0000000   0.0000000
 NQMom=    0.0000000   0.0000000   0.0000000   0.0000000   0.0000000   0.0000000   2.0440000   0.0000000   0.0000000   0.0000000
 NMagM=    0.0000000   2.7928460   2.7928460   2.7928460   0.0000000   0.0000000   0.4037610   2.7928460   0.0000000   2.7928460

  Atom        41          42
 IAtWgt=           1           1
 AtmWgt=   1.0078250   1.0078250
 NucSpn=           1           1
 AtZEff=   0.0000000   0.0000000
 NQMom=    0.0000000   0.0000000
 NMagM=    2.7928460   2.7928460
 Leave Link  101 at Tue Jul  5 04:29:28 2016, MaxMem=   33554432 cpu:       0.2
 (Enter /home/kanhaya91/Software/g09/l103.exe)

 GradGradGradGradGradGradGradGradGradGradGradGradGradGradGradGradGradGrad
 Berny optimization.
 Initialization pass.
                           ----------------------------
                           !    Initial Parameters    !
                           ! (Angstroms and Degrees)  !
 --------------------------                            --------------------------
 ! Name  Definition              Value          Derivative Info.                !
 --------------------------------------------------------------------------------
 ! R1    R(1,2)                  1.0808         calculate D2E/DX2 analytically  !
 ! R2    R(2,3)                  1.0836         calculate D2E/DX2 analytically  !
 ! R3    R(2,4)                  1.0853         calculate D2E/DX2 analytically  !
 ! R4    R(2,5)                  1.5083         calculate D2E/DX2 analytically  !
 ! R5    R(5,6)                  1.2062         calculate D2E/DX2 analytically  !
 ! R6    R(5,7)                  1.3574         calculate D2E/DX2 analytically  !
 ! R7    R(7,8)                  0.9951         calculate D2E/DX2 analytically  !
 ! R8    R(7,9)                  1.4537         calculate D2E/DX2 analytically  !
 ! R9    R(9,10)                 1.0809         calculate D2E/DX2 analytically  !
 ! R10   R(9,11)                 1.5289         calculate D2E/DX2 analytically  !
 ! R11   R(9,15)                 1.5321         calculate D2E/DX2 analytically  !
 ! R12   R(11,12)                1.0866         calculate D2E/DX2 analytically  !
 ! R13   R(11,13)                1.0806         calculate D2E/DX2 analytically  !
 ! R14   R(11,14)                1.0849         calculate D2E/DX2 analytically  !
 ! R15   R(15,16)                1.2009         calculate D2E/DX2 analytically  !
 ! R16   R(15,17)                1.3518         calculate D2E/DX2 analytically  !
 ! R17   R(17,18)                0.9947         calculate D2E/DX2 analytically  !
 ! R18   R(17,19)                1.4523         calculate D2E/DX2 analytically  !
 ! R19   R(19,20)                1.0798         calculate D2E/DX2 analytically  !
 ! R20   R(19,21)                1.5316         calculate D2E/DX2 analytically  !
 ! R21   R(19,25)                1.5324         calculate D2E/DX2 analytically  !
 ! R22   R(21,22)                1.0866         calculate D2E/DX2 analytically  !
 ! R23   R(21,23)                1.0805         calculate D2E/DX2 analytically  !
 ! R24   R(21,24)                1.0834         calculate D2E/DX2 analytically  !
 ! R25   R(25,26)                1.2031         calculate D2E/DX2 analytically  !
 ! R26   R(25,27)                1.3496         calculate D2E/DX2 analytically  !
 ! R27   R(27,28)                0.9962         calculate D2E/DX2 analytically  !
 ! R28   R(27,29)                1.4595         calculate D2E/DX2 analytically  !
 ! R29   R(29,30)                1.0838         calculate D2E/DX2 analytically  !
 ! R30   R(29,31)                1.527          calculate D2E/DX2 analytically  !
 ! R31   R(29,35)                1.5298         calculate D2E/DX2 analytically  !
 ! R32   R(31,32)                1.0818         calculate D2E/DX2 analytically  !
 ! R33   R(31,33)                1.0858         calculate D2E/DX2 analytically  !
 ! R34   R(31,34)                1.0808         calculate D2E/DX2 analytically  !
 ! R35   R(35,36)                1.204          calculate D2E/DX2 analytically  !
 ! R36   R(35,37)                1.3443         calculate D2E/DX2 analytically  !
 ! R37   R(37,38)                0.9936         calculate D2E/DX2 analytically  !
 ! R38   R(37,39)                1.4483         calculate D2E/DX2 analytically  !
 ! R39   R(39,40)                1.0819         calculate D2E/DX2 analytically  !
 ! R40   R(39,41)                1.0803         calculate D2E/DX2 analytically  !
 ! R41   R(39,42)                1.0835         calculate D2E/DX2 analytically  !
 ! A1    A(1,2,3)              110.1823         calculate D2E/DX2 analytically  !
 ! A2    A(1,2,4)              108.2234         calculate D2E/DX2 analytically  !
 ! A3    A(1,2,5)              108.4863         calculate D2E/DX2 analytically  !
 ! A4    A(3,2,4)              108.6722         calculate D2E/DX2 analytically  !
 ! A5    A(3,2,5)              112.9254         calculate D2E/DX2 analytically  !
 ! A6    A(4,2,5)              108.2308         calculate D2E/DX2 analytically  !
 ! A7    A(2,5,6)              122.2165         calculate D2E/DX2 analytically  !
 ! A8    A(2,5,7)              117.0425         calculate D2E/DX2 analytically  !
 ! A9    A(6,5,7)              120.7401         calculate D2E/DX2 analytically  !
 ! A10   A(5,7,8)              117.9645         calculate D2E/DX2 analytically  !
 ! A11   A(5,7,9)              120.86           calculate D2E/DX2 analytically  !
 ! A12   A(8,7,9)              117.5713         calculate D2E/DX2 analytically  !
 ! A13   A(7,9,10)             108.4604         calculate D2E/DX2 analytically  !
 ! A14   A(7,9,11)             109.951          calculate D2E/DX2 analytically  !
 ! A15   A(7,9,15)             115.3442         calculate D2E/DX2 analytically  !
 ! A16   A(10,9,11)            109.3498         calculate D2E/DX2 analytically  !
 ! A17   A(10,9,15)            103.571          calculate D2E/DX2 analytically  !
 ! A18   A(11,9,15)            109.8697         calculate D2E/DX2 analytically  !
 ! A19   A(9,11,12)            111.1468         calculate D2E/DX2 analytically  !
 ! A20   A(9,11,13)            109.6303         calculate D2E/DX2 analytically  !
 ! A21   A(9,11,14)            110.4268         calculate D2E/DX2 analytically  !
 ! A22   A(12,11,13)           108.2836         calculate D2E/DX2 analytically  !
 ! A23   A(12,11,14)           108.5564         calculate D2E/DX2 analytically  !
 ! A24   A(13,11,14)           108.7334         calculate D2E/DX2 analytically  !
 ! A25   A(9,15,16)            118.0415         calculate D2E/DX2 analytically  !
 ! A26   A(9,15,17)            118.4924         calculate D2E/DX2 analytically  !
 ! A27   A(16,15,17)           123.4288         calculate D2E/DX2 analytically  !
 ! A28   A(15,17,18)           117.5437         calculate D2E/DX2 analytically  !
 ! A29   A(15,17,19)           122.4669         calculate D2E/DX2 analytically  !
 ! A30   A(18,17,19)           118.2769         calculate D2E/DX2 analytically  !
 ! A31   A(17,19,20)           106.3112         calculate D2E/DX2 analytically  !
 ! A32   A(17,19,21)           111.03           calculate D2E/DX2 analytically  !
 ! A33   A(17,19,25)           115.0318         calculate D2E/DX2 analytically  !
 ! A34   A(20,19,21)           108.7439         calculate D2E/DX2 analytically  !
 ! A35   A(20,19,25)           106.1914         calculate D2E/DX2 analytically  !
 ! A36   A(21,19,25)           109.2253         calculate D2E/DX2 analytically  !
 ! A37   A(19,21,22)           110.8595         calculate D2E/DX2 analytically  !
 ! A38   A(19,21,23)           110.4784         calculate D2E/DX2 analytically  !
 ! A39   A(19,21,24)           109.3621         calculate D2E/DX2 analytically  !
 ! A40   A(22,21,23)           108.3818         calculate D2E/DX2 analytically  !
 ! A41   A(22,21,24)           108.3277         calculate D2E/DX2 analytically  !
 ! A42   A(23,21,24)           109.3874         calculate D2E/DX2 analytically  !
 ! A43   A(19,25,26)           118.6854         calculate D2E/DX2 analytically  !
 ! A44   A(19,25,27)           118.4244         calculate D2E/DX2 analytically  !
 ! A45   A(26,25,27)           122.8451         calculate D2E/DX2 analytically  !
 ! A46   A(25,27,28)           118.7564         calculate D2E/DX2 analytically  !
 ! A47   A(25,27,29)           120.3565         calculate D2E/DX2 analytically  !
 ! A48   A(28,27,29)           117.5794         calculate D2E/DX2 analytically  !
 ! A49   A(27,29,30)           108.6293         calculate D2E/DX2 analytically  !
 ! A50   A(27,29,31)           111.9646         calculate D2E/DX2 analytically  !
 ! A51   A(27,29,35)           107.2872         calculate D2E/DX2 analytically  !
 ! A52   A(30,29,31)           109.0018         calculate D2E/DX2 analytically  !
 ! A53   A(30,29,35)           110.1343         calculate D2E/DX2 analytically  !
 ! A54   A(31,29,35)           109.8022         calculate D2E/DX2 analytically  !
 ! A55   A(29,31,32)           109.9777         calculate D2E/DX2 analytically  !
 ! A56   A(29,31,33)           110.1417         calculate D2E/DX2 analytically  !
 ! A57   A(29,31,34)           109.9183         calculate D2E/DX2 analytically  !
 ! A58   A(32,31,33)           108.4606         calculate D2E/DX2 analytically  !
 ! A59   A(32,31,34)           109.8023         calculate D2E/DX2 analytically  !
 ! A60   A(33,31,34)           108.5088         calculate D2E/DX2 analytically  !
 ! A61   A(29,35,36)           121.2175         calculate D2E/DX2 analytically  !
 ! A62   A(29,35,37)           115.788          calculate D2E/DX2 analytically  !
 ! A63   A(36,35,37)           122.9872         calculate D2E/DX2 analytically  !
 ! A64   A(35,37,38)           118.1046         calculate D2E/DX2 analytically  !
 ! A65   A(35,37,39)           121.1258         calculate D2E/DX2 analytically  !
 ! A66   A(38,37,39)           118.0395         calculate D2E/DX2 analytically  !
 ! A67   A(37,39,40)           108.6664         calculate D2E/DX2 analytically  !
 ! A68   A(37,39,41)           109.6763         calculate D2E/DX2 analytically  !
 ! A69   A(37,39,42)           111.259          calculate D2E/DX2 analytically  !
 ! A70   A(40,39,41)           108.9284         calculate D2E/DX2 analytically  !
 ! A71   A(40,39,42)           109.3858         calculate D2E/DX2 analytically  !
 ! A72   A(41,39,42)           108.891          calculate D2E/DX2 analytically  !
 ! D1    D(1,2,5,6)             42.1545         calculate D2E/DX2 analytically  !
 ! D2    D(1,2,5,7)           -137.4996         calculate D2E/DX2 analytically  !
 ! D3    D(3,2,5,6)            164.5919         calculate D2E/DX2 analytically  !
 ! D4    D(3,2,5,7)            -15.0622         calculate D2E/DX2 analytically  !
 ! D5    D(4,2,5,6)            -75.0576         calculate D2E/DX2 analytically  !
 ! D6    D(4,2,5,7)            105.2883         calculate D2E/DX2 analytically  !
 ! D7    D(2,5,7,8)             -8.2378         calculate D2E/DX2 analytically  !
 ! D8    D(2,5,7,9)           -166.3184         calculate D2E/DX2 analytically  !
 ! D9    D(6,5,7,8)            172.1027         calculate D2E/DX2 analytically  !
 ! D10   D(6,5,7,9)             14.0221         calculate D2E/DX2 analytically  !
 ! D11   D(5,7,9,10)            33.026          calculate D2E/DX2 analytically  !
 ! D12   D(5,7,9,11)           152.5502         calculate D2E/DX2 analytically  !
 ! D13   D(5,7,9,15)           -82.5584         calculate D2E/DX2 analytically  !
 ! D14   D(8,7,9,10)          -125.1377         calculate D2E/DX2 analytically  !
 ! D15   D(8,7,9,11)            -5.6135         calculate D2E/DX2 analytically  !
 ! D16   D(8,7,9,15)           119.2779         calculate D2E/DX2 analytically  !
 ! D17   D(7,9,11,12)           60.2221         calculate D2E/DX2 analytically  !
 ! D18   D(7,9,11,13)          179.8981         calculate D2E/DX2 analytically  !
 ! D19   D(7,9,11,14)          -60.3199         calculate D2E/DX2 analytically  !
 ! D20   D(10,9,11,12)         179.2025         calculate D2E/DX2 analytically  !
 ! D21   D(10,9,11,13)         -61.1215         calculate D2E/DX2 analytically  !
 ! D22   D(10,9,11,14)          58.6605         calculate D2E/DX2 analytically  !
 ! D23   D(15,9,11,12)         -67.7588         calculate D2E/DX2 analytically  !
 ! D24   D(15,9,11,13)          51.9172         calculate D2E/DX2 analytically  !
 ! D25   D(15,9,11,14)         171.6992         calculate D2E/DX2 analytically  !
 ! D26   D(7,9,15,16)          169.549          calculate D2E/DX2 analytically  !
 ! D27   D(7,9,15,17)           -8.3075         calculate D2E/DX2 analytically  !
 ! D28   D(10,9,15,16)          51.2048         calculate D2E/DX2 analytically  !
 ! D29   D(10,9,15,17)        -126.6517         calculate D2E/DX2 analytically  !
 ! D30   D(11,9,15,16)         -65.5174         calculate D2E/DX2 analytically  !
 ! D31   D(11,9,15,17)         116.6261         calculate D2E/DX2 analytically  !
 ! D32   D(9,15,17,18)          -4.8188         calculate D2E/DX2 analytically  !
 ! D33   D(9,15,17,19)         160.0            calculate D2E/DX2 analytically  !
 ! D34   D(16,15,17,18)        177.4481         calculate D2E/DX2 analytically  !
 ! D35   D(16,15,17,19)        -17.7331         calculate D2E/DX2 analytically  !
 ! D36   D(15,17,19,20)          4.3149         calculate D2E/DX2 analytically  !
 ! D37   D(15,17,19,21)        122.4281         calculate D2E/DX2 analytically  !
 ! D38   D(15,17,19,25)       -112.899          calculate D2E/DX2 analytically  !
 ! D39   D(18,17,19,20)        169.0279         calculate D2E/DX2 analytically  !
 ! D40   D(18,17,19,21)        -72.8589         calculate D2E/DX2 analytically  !
 ! D41   D(18,17,19,25)         51.814          calculate D2E/DX2 analytically  !
 ! D42   D(17,19,21,22)         61.4743         calculate D2E/DX2 analytically  !
 ! D43   D(17,19,21,23)       -178.3576         calculate D2E/DX2 analytically  !
 ! D44   D(17,19,21,24)        -57.9049         calculate D2E/DX2 analytically  !
 ! D45   D(20,19,21,22)        178.1033         calculate D2E/DX2 analytically  !
 ! D46   D(20,19,21,23)        -61.7286         calculate D2E/DX2 analytically  !
 ! D47   D(20,19,21,24)         58.7241         calculate D2E/DX2 analytically  !
 ! D48   D(25,19,21,22)        -66.4169         calculate D2E/DX2 analytically  !
 ! D49   D(25,19,21,23)         53.7512         calculate D2E/DX2 analytically  !
 ! D50   D(25,19,21,24)        174.2039         calculate D2E/DX2 analytically  !
 ! D51   D(17,19,25,26)       -177.629          calculate D2E/DX2 analytically  !
 ! D52   D(17,19,25,27)          0.0            calculate D2E/DX2 analytically  !
 ! D53   D(20,19,25,26)         65.0893         calculate D2E/DX2 analytically  !
 ! D54   D(20,19,25,27)       -117.2817         calculate D2E/DX2 analytically  !
 ! D55   D(21,19,25,26)        -52.0164         calculate D2E/DX2 analytically  !
 ! D56   D(21,19,25,27)        125.6126         calculate D2E/DX2 analytically  !
 ! D57   D(19,25,27,28)         21.4059         calculate D2E/DX2 analytically  !
 ! D58   D(19,25,27,29)       -179.6207         calculate D2E/DX2 analytically  !
 ! D59   D(26,25,27,28)       -161.0699         calculate D2E/DX2 analytically  !
 ! D60   D(26,25,27,29)         -2.0965         calculate D2E/DX2 analytically  !
 ! D61   D(25,27,29,30)        -46.3445         calculate D2E/DX2 analytically  !
 ! D62   D(25,27,29,31)         74.0832         calculate D2E/DX2 analytically  !
 ! D63   D(25,27,29,35)       -165.3802         calculate D2E/DX2 analytically  !
 ! D64   D(28,27,29,30)        112.8697         calculate D2E/DX2 analytically  !
 ! D65   D(28,27,29,31)       -126.7026         calculate D2E/DX2 analytically  !
 ! D66   D(28,27,29,35)         -6.166          calculate D2E/DX2 analytically  !
 ! D67   D(27,29,31,32)         61.2327         calculate D2E/DX2 analytically  !
 ! D68   D(27,29,31,33)       -179.2815         calculate D2E/DX2 analytically  !
 ! D69   D(27,29,31,34)        -59.7734         calculate D2E/DX2 analytically  !
 ! D70   D(30,29,31,32)       -178.5566         calculate D2E/DX2 analytically  !
 ! D71   D(30,29,31,33)        -59.0708         calculate D2E/DX2 analytically  !
 ! D72   D(30,29,31,34)         60.4373         calculate D2E/DX2 analytically  !
 ! D73   D(35,29,31,32)        -57.8305         calculate D2E/DX2 analytically  !
 ! D74   D(35,29,31,33)         61.6553         calculate D2E/DX2 analytically  !
 ! D75   D(35,29,31,34)       -178.8366         calculate D2E/DX2 analytically  !
 ! D76   D(27,29,35,36)        -74.519          calculate D2E/DX2 analytically  !
 ! D77   D(27,29,35,37)        106.4341         calculate D2E/DX2 analytically  !
 ! D78   D(30,29,35,36)        167.4185         calculate D2E/DX2 analytically  !
 ! D79   D(30,29,35,37)        -11.6284         calculate D2E/DX2 analytically  !
 ! D80   D(31,29,35,36)         47.379          calculate D2E/DX2 analytically  !
 ! D81   D(31,29,35,37)       -131.6679         calculate D2E/DX2 analytically  !
 ! D82   D(29,35,37,38)        -11.4674         calculate D2E/DX2 analytically  !
 ! D83   D(29,35,37,39)       -172.3818         calculate D2E/DX2 analytically  !
 ! D84   D(36,35,37,38)        169.5044         calculate D2E/DX2 analytically  !
 ! D85   D(36,35,37,39)          8.59           calculate D2E/DX2 analytically  !
 ! D86   D(35,37,39,40)       -171.8523         calculate D2E/DX2 analytically  !
 ! D87   D(35,37,39,41)        -52.8771         calculate D2E/DX2 analytically  !
 ! D88   D(35,37,39,42)         67.6586         calculate D2E/DX2 analytically  !
 ! D89   D(38,37,39,40)         27.2213         calculate D2E/DX2 analytically  !
 ! D90   D(38,37,39,41)        146.1965         calculate D2E/DX2 analytically  !
 ! D91   D(38,37,39,42)        -93.2678         calculate D2E/DX2 analytically  !
 --------------------------------------------------------------------------------
 Trust Radius=3.00D-01 FncErr=1.00D-07 GrdErr=1.00D-07
 Number of steps in this run= 214 maximum allowed number of steps= 252.
 GradGradGradGradGradGradGradGradGradGradGradGradGradGradGradGradGradGrad

 Leave Link  103 at Tue Jul  5 04:29:28 2016, MaxMem=   33554432 cpu:       0.0
 (Enter /home/kanhaya91/Software/g09/l202.exe)
                          Input orientation:                          
 ---------------------------------------------------------------------
 Center     Atomic      Atomic             Coordinates (Angstroms)
 Number     Number       Type             X           Y           Z
 ---------------------------------------------------------------------
      1          1           0        0.000000    0.000000    0.000000
      2          6           0        0.000000    0.000000    1.080800
      3          1           0        1.017067    0.000000    1.454651
      4          1           0       -0.494948   -0.904274    1.420199
      5          6           0       -0.801759    1.184664    1.559049
      6          8           0       -1.845228    1.504525    1.045453
      7          7           0       -0.294963    1.893123    2.600096
      8          1           0        0.502396    1.526968    3.069534
      9          6           0       -1.116051    2.854158    3.318060
     10          1           0       -2.135627    2.495332    3.325352
     11          6           0       -0.617944    2.994037    4.756760
     12          1           0        0.411576    3.340575    4.783204
     13          1           0       -1.230509    3.710601    5.284961
     14          1           0       -0.674666    2.040693    5.271469
     15          6           0       -1.226345    4.237303    2.668388
     16          8           0       -2.037378    5.005229    3.109609
     17          7           0       -0.440190    4.514445    1.604190
     18          1           0        0.229299    3.829373    1.336070
     19          6           0       -0.742003    5.584256    0.669531
     20          1           0       -1.612589    6.090592    1.058981
     21          6           0        0.414239    6.585387    0.588039
     22          1           0        1.319635    6.102539    0.230526
     23          1           0        0.168815    7.392164   -0.087504
     24          1           0        0.610042    6.989030    1.574187
     25          6           0       -1.112026    5.124529   -0.744677
     26          8           0       -1.332363    5.958106   -1.583755
     27          7           0       -1.128754    3.800579   -1.006010
     28          1           0       -1.223973    3.163275   -0.246279
     29          6           0       -1.467197    3.316401   -2.340615
     30          1           0       -2.350722    3.840893   -2.685453
     31          6           0       -0.332426    3.545972   -3.336266
     32          1           0        0.551204    3.007904   -3.020080
     33          1           0       -0.619823    3.187212   -4.319961
     34          1           0       -0.112500    4.601801   -3.406873
     35          6           0       -1.756788    1.819024   -2.221088
     36          8           0       -0.867240    1.021272   -2.073062
     37          7           0       -3.050284    1.464433   -2.312054
     38          1           0       -3.736211    2.182261   -2.273748
     39          6           0       -3.473553    0.103786   -2.053100
     40          1           0       -4.517388    0.008889   -2.321262
     41          1           0       -2.893218   -0.578796   -2.656706
     42          1           0       -3.345477   -0.155497   -1.008906
 ---------------------------------------------------------------------
                    Distance matrix (angstroms):
                    1          2          3          4          5
     1  H    0.000000
     2  C    1.080800   0.000000
     3  H    1.774946   1.083600   0.000000
     4  H    1.754893   1.085300   1.762125   0.000000
     5  C    2.115864   1.508300   2.173121   2.115910   0.000000
     6  O    2.600276   2.381115   3.259412   2.786755   1.206200
     7  N    3.229771   2.445236   2.572427   3.042628   1.357400
     8  H    3.464978   2.557165   2.281307   3.102569   2.024736
     9  C    4.516781   3.794353   4.021032   4.255990   2.445426
    10  H    4.673922   3.978140   4.434600   4.228328   2.572329
    11  C    5.654457   4.781087   4.747783   5.132699   3.678719
    12  H    5.848750   5.003662   4.754506   5.490932   4.063903
    13  H    6.573700   5.740878   5.787178   6.064199   4.521792
    14  H    5.692801   4.709704   4.646987   4.851537   3.811955
    15  C    5.155478   4.688187   4.945785   5.341230   3.275593
    16  O    6.234813   5.772287   6.092687   6.336831   4.304382
    17  N    4.811175   4.565952   4.746174   5.422118   3.349658
    18  H    4.062235   3.844715   3.911360   4.789470   2.847329
    19  C    5.672985   5.648330   5.907170   6.536480   4.489012
    20  H    6.388834   6.300494   6.645822   7.092795   4.997563
    21  C    6.624553   6.616776   6.669463   7.590397   5.620438
    22  H    6.247844   6.301221   6.231453   7.335084   5.518222
    23  H    7.394609   7.485822   7.598807   8.458406   6.495091
    24  H    7.190046   7.032931   7.001892   7.971760   5.973615
    25  C    5.296409   5.552456   5.969160   6.435366   4.574490
    26  O    6.307336   6.661386   7.088776   7.537722   5.739730
    27  N    4.090298   4.480319   5.010369   5.331401   3.678242
    28  H    3.400746   3.642192   4.233407   4.455736   2.711526
    29  C    4.316209   4.985706   5.619086   5.736121   4.493828
    30  H    5.243092   5.870521   6.575327   6.543462   5.241244
    31  C    4.880071   5.674054   6.111295   6.515754   5.455287
    32  H    4.297929   5.115518   5.411814   6.009629   5.111080
    33  H    5.404125   6.301645   6.795872   7.050198   6.213378
    34  H    5.726780   6.428720   6.788734   7.332377   6.067313
    35  C    3.365767   4.159041   4.951179   4.718852   3.950181
    36  O    2.468337   3.426652   4.127755   4.006145   3.636374
    37  N    4.098096   4.791686   5.733757   5.105901   4.485485
    38  H    4.887890   5.474900   6.423151   5.803251   4.929152
    39  C    4.036281   4.679495   5.699189   4.685305   4.621082
    40  H    5.078891   5.655166   6.699835   5.568880   5.499560
    41  H    3.970366   4.761793   5.703384   4.741180   5.025593
    42  H    3.497755   3.947565   5.012492   3.819258   3.854987
                    6          7          8          9         10
     6  O    0.000000
     7  N    2.229628   0.000000
     8  H    3.099797   0.995100   0.000000
     9  C    2.741888   1.453700   2.107740   0.000000
    10  H    2.502792   2.068017   2.821761   1.080900   0.000000
    11  C    4.183141   2.442852   2.500837   1.528900   2.144994
    12  H    4.736563   2.712983   2.496815   2.171841   3.054180
    13  H    4.818514   3.374459   3.560805   2.148324   2.477133
    14  H    4.417794   2.702256   2.549099   2.161563   2.475576
    15  C    3.238057   2.523354   3.239658   1.532100   2.071922
    16  O    4.068488   3.602890   4.307013   2.349341   2.521068
    17  N    3.368373   2.807890   3.458428   2.480059   3.148606
    18  H    3.129383   2.371007   2.894918   2.586367   3.365974
    19  C    4.242951   4.189438   4.875463   3.822049   4.305465
    20  H    4.591984   4.661536   5.416840   3.978001   4.282044
    21  C    5.579389   5.154482   5.634998   4.869997   5.542856
    22  H    5.641117   5.093228   5.446439   5.100726   5.876115
    23  H    6.324892   6.138219   6.669235   5.817409   6.398204
    24  H    6.032222   5.276342   5.664078   4.808082   5.549649
    25  C    4.104459   4.721978   5.486074   4.654077   4.952330
    26  O    5.197129   5.924938   6.682396   5.805951   6.060970
    27  N    3.161282   4.163844   4.943685   4.426450   4.634454
    28  H    2.192255   3.252414   4.080744   3.579345   3.746172
    29  C    3.858920   5.273564   6.029186   5.688372   5.764038
    30  H    4.431005   5.996414   6.827475   6.208078   6.163325
    31  C    5.065130   6.162281   6.768130   6.735928   6.980869
    32  H    4.952938   5.791814   6.267293   6.555562   6.909869
    33  H    5.755061   7.047510   7.656398   7.661366   7.824779
    34  H    5.693740   6.591957   7.195592   7.020405   7.338467
    35  C    3.282838   5.038476   5.760199   5.671350   5.600349
    36  O    3.303805   4.788113   5.345832   5.699612   5.737990
    37  N    3.567439   5.648432   6.448793   6.113164   5.803421
    38  H    3.879722   5.973285   6.851705   6.211682   5.831792
    39  C    3.770218   5.912478   6.638900   6.478558   6.036330
    40  H    4.551059   6.752701   7.520870   7.174023   6.613579
    41  H    4.375442   6.363590   6.982425   7.116272   6.768251
    42  H    3.037567   5.150473   5.854100   5.722848   5.222683
                   11         12         13         14         15
    11  C    0.000000
    12  H    1.086600   0.000000
    13  H    1.080600   1.756452   0.000000
    14  H    1.084900   1.762958   1.760039   0.000000
    15  C    2.505427   2.821233   2.669062   3.450432   0.000000
    16  O    2.961890   3.401378   2.656926   3.913962   1.200900
    17  N    3.504559   3.494225   3.849526   4.429827   1.351800
    18  H    3.621703   3.486386   4.211756   4.416322   2.015038
    19  C    4.840462   4.825677   5.005140   5.808547   2.458516
    20  H    4.924585   5.052690   4.865105   5.918314   2.484764
    21  C    5.598342   5.303605   5.747232   6.616229   3.540179
    22  H    5.822696   5.401842   6.145887   6.773990   3.988018
    23  H    6.590099   6.340198   6.661487   7.620256   4.415264
    24  H    5.253255   4.862962   5.282573   6.309232   3.484479
    25  C    5.920213   6.005108   6.194334   6.774610   3.528349
    26  O    7.035498   7.101476   7.227787   7.922928   4.588367
    27  N    5.841315   6.008263   6.292438   6.535300   3.701548
    28  H    5.042451   5.291706   5.558257   5.657515   3.106255
    29  C    7.155270   7.367440   7.639426   7.758825   5.098645
    30  H    7.688057   7.978813   8.049805   8.328415   5.484977
    31  C    8.116848   8.156073   8.669442   8.745061   6.110065
    32  H    7.864245   7.811620   8.523027   8.437301   6.085209
    33  H    9.078777   9.162692   9.638538   9.659868   7.092784
    34  H    8.335783   8.303175   8.808641   9.065811   6.187269
    35  C    7.167147   7.488460   7.758596   7.573542   5.480549
    36  O    7.113397   7.350029   7.842510   7.417442   5.740484
    37  N    7.630472   8.114621   8.128437   7.967776   5.985011
    38  H    7.733732   8.267188   8.108541   8.143918   5.911627
    39  C    7.929833   8.503299   8.478650   8.076799   6.665460
    40  H    8.614823   9.266513   9.075289   8.748960   7.321684
    41  H    8.538237   9.035231   9.177887   8.639425   7.370882
    42  H    7.113502   7.738637   7.683265   7.169351   6.108183
                   16         17         18         19         20
    16  O    0.000000
    17  N    2.249036   0.000000
    18  H    3.109003   0.994700   0.000000
    19  C    2.822632   1.452300   2.113603   0.000000
    20  H    2.358714   2.038630   2.929580   1.079800   0.000000
    21  C    3.855598   2.459962   2.861707   1.531600   2.138841
    22  H    4.556615   2.739704   2.752879   2.170643   3.047035
    23  H    4.559197   3.393226   3.837148   2.161301   2.486347
    24  H    3.647165   2.688393   3.191410   2.149376   2.452084
    25  C    3.965606   2.518083   2.793938   1.532400   2.106424
    26  O    4.840731   3.611526   3.936454   2.359149   2.660852
    27  N    4.383503   2.792288   2.707485   2.477604   3.121290
    28  H    3.913618   2.421613   2.249336   2.632898   3.228608
    29  C    5.734299   4.248710   4.081574   3.837975   4.390276
    30  H    5.919173   4.743927   4.778000   4.108918   4.430211
    31  C    6.825364   5.035639   4.714507   4.513177   5.237567
    32  H    6.947168   4.963507   4.444601   4.682222   5.551910
    33  H    7.779020   6.073663   5.755351   5.536766   6.192594
    34  H    6.806794   5.022525   4.817569   4.240113   4.940710
    35  C    6.216668   4.861222   4.543062   4.854116   5.387573
    36  O    6.640875   5.089873   4.550825   5.325254   6.005268
    37  N    6.554208   5.608220   5.445862   5.584887   5.901880
    38  H    6.311554   5.598324   5.609726   5.403864   5.558048
    39  C    7.262252   6.483130   6.251206   6.701466   6.999291
    40  H    7.785129   7.234138   7.106561   7.367707   7.539961
    41  H    8.072434   7.079102   6.717464   7.326309   7.741258
    42  H    6.731001   6.089114   5.844409   6.522269   6.803872
                   21         22         23         24         25
    21  C    0.000000
    22  H    1.086600   0.000000
    23  H    1.080500   1.757459   0.000000
    24  H    1.083400   1.759208   1.765904   0.000000
    25  C    2.497943   2.796515   2.686000   3.437879   0.000000
    26  O    2.856709   3.216453   2.559068   3.848161   1.203100
    27  N    3.560474   3.580873   3.927700   4.455003   1.349600
    28  H    3.884671   3.916191   4.455173   4.616720   2.026684
    29  C    4.775257   4.705291   4.936080   5.755762   2.437723
    30  H    5.088517   5.204757   5.070398   6.068066   2.636039
    31  C    5.019534   4.689067   5.059535   6.070869   3.133042
    32  H    5.082880   4.553427   5.288474   6.079484   3.524755
    33  H    6.058493   5.741739   6.018078   7.120911   4.096110
    34  H    4.491256   4.187350   4.345512   5.570627   2.891294
    35  C    5.943296   5.815779   6.270568   6.836297   3.677210
    36  O    6.299446   5.992347   6.753082   7.148351   4.319867
    37  N    6.829175   6.860972   7.102762   7.682580   4.428298
    38  H    6.693547   6.870338   6.868186   7.536680   4.228634
    39  C    8.006353   8.010907   8.381579   8.788603   5.700583
    40  H    8.719823   8.815613   9.025682   9.496706   6.344438
    41  H    8.531891   8.409785   8.917010   9.351218   6.273470
    42  H    7.881955   7.903320   8.376540   8.565207   5.739059
                   26         27         28         29         30
    26  O    0.000000
    27  N    2.242803   0.000000
    28  H    3.100269   0.996200   0.000000
    29  C    2.751294   1.459500   2.113965   0.000000
    30  H    2.594876   2.077344   2.770975   1.083800   0.000000
    31  C    3.144767   2.475693   3.238724   1.527000   2.141041
    32  H    3.783457   2.739903   3.296872   2.151926   3.037601
    33  H    3.958837   3.408445   4.118308   2.156976   2.468790
    34  H    2.579028   2.727429   3.646105   2.150433   2.471652
    35  C    4.209314   2.407779   2.447606   1.529800   2.157857
    36  O    4.982779   2.988567   2.837706   2.387290   3.244381
    37  N    4.865672   3.294785   3.238658   2.436549   2.505271
    38  H    4.528971   3.320383   3.374072   2.537552   2.200032
    39  C    6.251243   4.501195   4.205436   3.798556   3.953048
    40  H    6.788334   5.252584   5.010219   4.499298   4.417164
    41  H    6.805775   5.001705   4.753908   4.160050   4.452953
    42  H    6.462137   4.534799   4.012060   4.165989   4.446514
                   31         32         33         34         35
    31  C    0.000000
    32  H    1.081800   0.000000
    33  H    1.085800   1.758734   0.000000
    34  H    1.080800   1.769356   1.758456   0.000000
    35  C    2.500955   2.716367   2.751344   3.442908   0.000000
    36  O    2.873294   2.618307   3.130666   3.894724   1.204000
    37  N    3.573314   3.981748   3.592604   4.435345   1.344300
    38  H    3.817644   4.429517   3.861190   4.502158   2.013164
    39  C    4.833409   5.056443   4.773882   5.775943   2.432601
    40  H    5.572710   5.930688   5.411797   6.455729   3.302656
    41  H    4.902364   4.986031   4.702931   5.927372   2.689011
    42  H    5.309986   5.407037   5.437461   6.231715   2.809280
                   36         37         38         39         40
    36  O    0.000000
    37  N    2.240355   0.000000
    38  H    3.101478   0.993600   0.000000
    39  C    2.763159   1.448300   2.106593   0.000000
    40  H    3.796064   2.066661   2.309988   1.081900   0.000000
    41  H    2.646780   2.078037   2.912170   1.080300   1.759496
    42  H    2.942596   2.099882   2.686561   1.083500   1.767110
                   41         42
    41  H    0.000000
    42  H    1.760388   0.000000
 Stoichiometry    C12H22N4O4
 Framework group  C1[X(C12H22N4O4)]
 Deg. of freedom   120
 Full point group                 C1      NOp   1
 Largest Abelian subgroup         C1      NOp   1
 Largest concise Abelian subgroup C1      NOp   1
                         Standard orientation:                         
 ---------------------------------------------------------------------
 Center     Atomic      Atomic             Coordinates (Angstroms)
 Number     Number       Type             X           Y           Z
 ---------------------------------------------------------------------
      1          1           0        1.067088   -2.617342    1.712477
      2          6           0        0.070747   -3.009985    1.566650
      3          1           0       -0.467633   -3.022137    2.506963
      4          1           0        0.157335   -4.028751    1.202651
      5          6           0       -0.617206   -2.186929    0.506335
      6          8           0       -0.052920   -1.831762   -0.498830
      7          7           0       -1.912536   -1.849100    0.731118
      8          1           0       -2.373609   -2.260913    1.510891
      9          6           0       -2.742318   -1.322049   -0.339827
     10          1           0       -2.433719   -1.780119   -1.268958
     11          6           0       -4.210684   -1.654942   -0.074082
     12          1           0       -4.548129   -1.219270    0.862411
     13          1           0       -4.822748   -1.259418   -0.871975
     14          1           0       -4.352625   -2.729439   -0.025951
     15          6           0       -2.589196    0.178182   -0.610363
     16          8           0       -3.100605    0.628618   -1.599165
     17          7           0       -1.851449    0.916380    0.248797
     18          1           0       -1.500612    0.462381    1.061340
     19          6           0       -1.293381    2.207428   -0.113047
     20          1           0       -1.657438    2.427797   -1.105452
     21          6           0       -1.776381    3.302373    0.842781
     22          1           0       -1.456323    3.096329    1.860528
     23          1           0       -1.379152    4.263176    0.548592
     24          1           0       -2.858989    3.340771    0.827285
     25          6           0        0.235951    2.251550   -0.199340
     26          8           0        0.770111    3.299569   -0.451885
     27          7           0        0.926863    1.121512    0.059647
     28          1           0        0.459720    0.245250   -0.020078
     29          6           0        2.385048    1.117970   -0.002191
     30          1           0        2.694236    1.620297   -0.911418
     31          6           0        3.009251    1.829712    1.195942
     32          1           0        2.731038    1.325267    2.111598
     33          1           0        4.091898    1.820744    1.113745
     34          1           0        2.676119    2.857381    1.228291
     35          6           0        2.835370   -0.343803   -0.028955
     36          8           0        2.798688   -1.026311    0.962233
     37          7           0        3.285298   -0.795571   -1.212430
     38          1           0        3.138393   -0.229825   -2.015917
     39          6           0        3.586409   -2.197952   -1.413014
     40          1           0        4.064485   -2.315108   -2.376459
     41          1           0        4.262658   -2.538612   -0.642504
     42          1           0        2.686920   -2.801225   -1.382134
 ---------------------------------------------------------------------
 Rotational constants (GHZ):      0.3953185      0.2755304      0.1895994
 Leave Link  202 at Tue Jul  5 04:29:29 2016, MaxMem=   33554432 cpu:       0.0
 (Enter /home/kanhaya91/Software/g09/l301.exe)
 Standard basis: 6-31G(d) (6D, 7F)
 Ernie: Thresh=  0.10000D-02 Tol=  0.10000D-05 Strict=F.
 There are   344 symmetry adapted basis functions of A   symmetry.
 Integral buffers will be    131072 words long.
 Raffenetti 1 integral format.
 Two-electron integral symmetry is turned on.
   344 basis functions,   648 primitive gaussians,   344 cartesian basis functions
    77 alpha electrons       77 beta electrons
       nuclear repulsion energy      1738.2336141814 Hartrees.
 IExCor=    0 DFT=F Ex=HF Corr=None ExCW=0 ScaHFX=  1.000000
 ScaDFX=  1.000000  1.000000  1.000000  1.000000 ScalE2=  1.000000  1.000000
 IRadAn=      0 IRanWt=     -1 IRanGd=            0 ICorTp=0
 NAtoms=   42 NActive=   42 NUniq=   42 SFac= 7.50D-01 NAtFMM=   80 NAOKFM=F Big=F
 Leave Link  301 at Tue Jul  5 04:29:29 2016, MaxMem=   33554432 cpu:       0.1
 (Enter /home/kanhaya91/Software/g09/l302.exe)
 NPDir=0 NMtPBC=     1 NCelOv=     1 NCel=       1 NClECP=     1 NCelD=      1
         NCelK=      1 NCelE2=     1 NClLst=     1 CellRange=     0.0.
 One-electron integrals computed using PRISM.
 NBasis=   344 RedAO= T  NBF=   344
 NBsUse=   344 1.00D-06 NBFU=   344
 Leave Link  302 at Tue Jul  5 04:29:29 2016, MaxMem=   33554432 cpu:       0.5
 (Enter /home/kanhaya91/Software/g09/l303.exe)
 DipDrv:  MaxL=1.
 Leave Link  303 at Tue Jul  5 04:29:29 2016, MaxMem=   33554432 cpu:       0.1
 (Enter /home/kanhaya91/Software/g09/l401.exe)
 Harris functional with IExCor=  205 diagonalized for initial guess.
 ExpMin= 1.61D-01 ExpMax= 5.48D+03 ExpMxC= 8.25D+02 IAcc=1 IRadAn=         1 AccDes= 0.00D+00
 HarFok:  IExCor=  205 AccDes= 0.00D+00 IRadAn=         1 IDoV= 1
 ScaDFX=  1.000000  1.000000  1.000000  1.000000
 FoFCou: FMM=F IPFlag=           0 FMFlag=      100000 FMFlg1=           0
         NFxFlg=           0 DoJE=T BraDBF=F KetDBF=T FulRan=T
         Omega=  0.000000  0.000000  1.000000  0.000000  0.000000 ICntrl=     500 IOpCl=  0
         NMat0=    1 NMatS0=    1 NMatT0=    0 NMatD0=    1 NMtDS0=    0 NMtDT0=    0
         I1Cent=           4 NGrid=           0.
 Petite list used in FoFCou.
 Harris En= -985.887237955929    
 Initial guess orbital symmetries:
       Occupied  (A) (A) (A) (A) (A) (A) (A) (A) (A) (A) (A) (A)
                 (A) (A) (A) (A) (A) (A) (A) (A) (A) (A) (A) (A)
                 (A) (A) (A) (A) (A) (A) (A) (A) (A) (A) (A) (A)
                 (A) (A) (A) (A) (A) (A) (A) (A) (A) (A) (A) (A)
                 (A) (A) (A) (A) (A) (A) (A) (A) (A) (A) (A) (A)
                 (A) (A) (A) (A) (A) (A) (A) (A) (A) (A) (A) (A)
                 (A) (A) (A) (A) (A)
       Virtual   (A) (A) (A) (A) (A) (A) (A) (A) (A) (A) (A) (A)
                 (A) (A) (A) (A) (A) (A) (A) (A) (A) (A) (A) (A)
                 (A) (A) (A) (A) (A) (A) (A) (A) (A) (A) (A) (A)
                 (A) (A) (A) (A) (A) (A) (A) (A) (A) (A) (A) (A)
                 (A) (A) (A) (A) (A) (A) (A) (A) (A) (A) (A) (A)
                 (A) (A) (A) (A) (A) (A) (A) (A) (A) (A) (A) (A)
                 (A) (A) (A) (A) (A) (A) (A) (A) (A) (A) (A) (A)
                 (A) (A) (A) (A) (A) (A) (A) (A) (A) (A) (A) (A)
                 (A) (A) (A) (A) (A) (A) (A) (A) (A) (A) (A) (A)
                 (A) (A) (A) (A) (A) (A) (A) (A) (A) (A) (A) (A)
                 (A) (A) (A) (A) (A) (A) (A) (A) (A) (A) (A) (A)
                 (A) (A) (A) (A) (A) (A) (A) (A) (A) (A) (A) (A)
                 (A) (A) (A) (A) (A) (A) (A) (A) (A) (A) (A) (A)
                 (A) (A) (A) (A) (A) (A) (A) (A) (A) (A) (A) (A)
                 (A) (A) (A) (A) (A) (A) (A) (A) (A) (A) (A) (A)
                 (A) (A) (A) (A) (A) (A) (A) (A) (A) (A) (A) (A)
                 (A) (A) (A) (A) (A) (A) (A) (A) (A) (A) (A) (A)
                 (A) (A) (A) (A) (A) (A) (A) (A) (A) (A) (A) (A)
                 (A) (A) (A) (A) (A) (A) (A) (A) (A) (A) (A) (A)
                 (A) (A) (A) (A) (A) (A) (A) (A) (A) (A) (A) (A)
                 (A) (A) (A) (A) (A) (A) (A) (A) (A) (A) (A) (A)
                 (A) (A) (A) (A) (A) (A) (A) (A) (A) (A) (A) (A)
                 (A) (A) (A)
 The electronic state of the initial guess is 1-A.
 Leave Link  401 at Tue Jul  5 04:29:35 2016, MaxMem=   33554432 cpu:       5.7
 (Enter /home/kanhaya91/Software/g09/l502.exe)
 Closed shell SCF:
 Requested convergence on RMS density matrix=1.00D-06 within 128 cycles.
 Requested convergence on MAX density matrix=1.00D-04.
 Requested convergence on             energy=1.00D-04.
 No special actions if energy rises.
 Using DIIS extrapolation, IDIIS=  1040.
 Integral symmetry usage will be decided dynamically.
 IEnd=      377834 IEndB=      377834 NGot=    33554432 MDV=    33311919
 LenX=    33311919 LenY=    33193142
 Fock matrices will be formed incrementally for  20 cycles.
 Integral accuracy reduced to 1.0D-05 until final iterations.

 Cycle   1  Pass 0  IDiag  1:
 FoFCou: FMM=F IPFlag=           0 FMFlag=      100000 FMFlg1=           0
         NFxFlg=           0 DoJE=F BraDBF=F KetDBF=F FulRan=T
         Omega=  0.000000  0.000000  1.000000  0.000000  0.000000 ICntrl=       0 IOpCl=  0
         NMat0=    1 NMatS0=    1 NMatT0=    0 NMatD0=    1 NMtDS0=    0 NMtDT0=    0
         I1Cent=           0 NGrid=           0.
 Symmetry not used in FoFCou.
 E= -983.669732193088    
 DIIS: error= 3.49D-02 at cycle   1 NSaved=   1.
 NSaved= 1 IEnMin= 1 EnMin= -983.669732193088     IErMin= 1 ErrMin= 3.49D-02
 ErrMax= 3.49D-02 EMaxC= 1.00D-01 BMatC= 1.47D+00 BMatP= 1.47D+00
 IDIUse=3 WtCom= 6.51D-01 WtEn= 3.49D-01
 Coeff-Com:  0.100D+01
 Coeff-En:   0.100D+01
 Coeff:      0.100D+01
 Gap=     0.589 Goal=   None    Shift=    0.000
 GapD=    0.589 DampG=2.000 DampE=0.500 DampFc=1.0000 IDamp=-1.
 RMSDP=3.58D-03 MaxDP=1.14D-01              OVMax= 1.12D-01

 Cycle   2  Pass 0  IDiag  1:
 RMSU=  2.50D-03    CP:  9.68D-01
 E= -984.416147727490     Delta-E=       -0.746415534401 Rises=F Damp=F
 DIIS: error= 1.07D-02 at cycle   2 NSaved=   2.
 NSaved= 2 IEnMin= 2 EnMin= -984.416147727490     IErMin= 2 ErrMin= 1.07D-02
 ErrMax= 1.07D-02 EMaxC= 1.00D-01 BMatC= 1.87D-01 BMatP= 1.47D+00
 IDIUse=3 WtCom= 8.93D-01 WtEn= 1.07D-01
 Coeff-Com:  0.195D+00 0.805D+00
 Coeff-En:   0.000D+00 0.100D+01
 Coeff:      0.174D+00 0.826D+00
 Gap=     0.608 Goal=   None    Shift=    0.000
 RMSDP=1.36D-03 MaxDP=4.92D-02 DE=-7.46D-01 OVMax= 4.25D-02

 Cycle   3  Pass 0  IDiag  1:
 RMSU=  7.61D-04    CP:  9.73D-01  7.65D-01
 E= -984.542641886646     Delta-E=       -0.126494159156 Rises=F Damp=F
 DIIS: error= 4.81D-03 at cycle   3 NSaved=   3.
 NSaved= 3 IEnMin= 3 EnMin= -984.542641886646     IErMin= 3 ErrMin= 4.81D-03
 ErrMax= 4.81D-03 EMaxC= 1.00D-01 BMatC= 2.09D-02 BMatP= 1.87D-01
 IDIUse=3 WtCom= 9.52D-01 WtEn= 4.81D-02
 Coeff-Com: -0.149D-01 0.215D+00 0.800D+00
 Coeff-En:   0.000D+00 0.000D+00 0.100D+01
 Coeff:     -0.141D-01 0.205D+00 0.809D+00
 Gap=     0.557 Goal=   None    Shift=    0.000
 RMSDP=3.82D-04 MaxDP=1.97D-02 DE=-1.26D-01 OVMax= 2.13D-02

 Cycle   4  Pass 0  IDiag  1:
 RMSU=  2.05D-04    CP:  9.73D-01  8.26D-01  8.88D-01
 E= -984.557345726299     Delta-E=       -0.014703839654 Rises=F Damp=F
 DIIS: error= 1.21D-03 at cycle   4 NSaved=   4.
 NSaved= 4 IEnMin= 4 EnMin= -984.557345726299     IErMin= 4 ErrMin= 1.21D-03
 ErrMax= 1.21D-03 EMaxC= 1.00D-01 BMatC= 1.67D-03 BMatP= 2.09D-02
 IDIUse=3 WtCom= 9.88D-01 WtEn= 1.21D-02
 Coeff-Com: -0.115D-01 0.332D-01 0.273D+00 0.705D+00
 Coeff-En:   0.000D+00 0.000D+00 0.000D+00 0.100D+01
 Coeff:     -0.113D-01 0.328D-01 0.270D+00 0.709D+00
 Gap=     0.557 Goal=   None    Shift=    0.000
 RMSDP=1.27D-04 MaxDP=4.40D-03 DE=-1.47D-02 OVMax= 4.95D-03

 Cycle   5  Pass 0  IDiag  1:
 RMSU=  5.64D-05    CP:  9.72D-01  8.25D-01  9.66D-01  8.27D-01
 E= -984.558835588437     Delta-E=       -0.001489862137 Rises=F Damp=F
 DIIS: error= 4.55D-04 at cycle   5 NSaved=   5.
 NSaved= 5 IEnMin= 5 EnMin= -984.558835588437     IErMin= 5 ErrMin= 4.55D-04
 ErrMax= 4.55D-04 EMaxC= 1.00D-01 BMatC= 6.07D-05 BMatP= 1.67D-03
 IDIUse=3 WtCom= 9.95D-01 WtEn= 4.55D-03
 Coeff-Com:  0.215D-02-0.178D-01-0.846D-01-0.661D-01 0.117D+01
 Coeff-En:   0.000D+00 0.000D+00 0.000D+00 0.000D+00 0.100D+01
 Coeff:      0.214D-02-0.177D-01-0.842D-01-0.658D-01 0.117D+01
 Gap=     0.557 Goal=   None    Shift=    0.000
 RMSDP=5.59D-05 MaxDP=1.67D-03 DE=-1.49D-03 OVMax= 4.54D-03

 Cycle   6  Pass 0  IDiag  1:
 RMSU=  1.83D-05    CP:  9.72D-01  8.27D-01  9.92D-01  9.32D-01  1.33D+00
 E= -984.559009012664     Delta-E=       -0.000173424228 Rises=F Damp=F
 DIIS: error= 1.35D-04 at cycle   6 NSaved=   6.
 NSaved= 6 IEnMin= 6 EnMin= -984.559009012664     IErMin= 6 ErrMin= 1.35D-04
 ErrMax= 1.35D-04 EMaxC= 1.00D-01 BMatC= 1.33D-05 BMatP= 6.07D-05
 IDIUse=3 WtCom= 9.99D-01 WtEn= 1.35D-03
 Coeff-Com:  0.166D-02-0.798D-02-0.480D-01-0.105D+00 0.265D+00 0.894D+00
 Coeff-En:   0.000D+00 0.000D+00 0.000D+00 0.000D+00 0.000D+00 0.100D+01
 Coeff:      0.166D-02-0.797D-02-0.480D-01-0.105D+00 0.265D+00 0.894D+00
 Gap=     0.557 Goal=   None    Shift=    0.000
 RMSDP=2.20D-05 MaxDP=5.62D-04 DE=-1.73D-04 OVMax= 1.41D-03

 Cycle   7  Pass 0  IDiag  1:
 RMSU=  6.11D-06    CP:  9.72D-01  8.26D-01  1.00D+00  9.51D-01  1.53D+00
                    CP:  1.15D+00
 E= -984.559035321328     Delta-E=       -0.000026308664 Rises=F Damp=F
 DIIS: error= 4.88D-05 at cycle   7 NSaved=   7.
 NSaved= 7 IEnMin= 7 EnMin= -984.559035321328     IErMin= 7 ErrMin= 4.88D-05
 ErrMax= 4.88D-05 EMaxC= 1.00D-01 BMatC= 1.63D-06 BMatP= 1.33D-05
 IDIUse=1 WtCom= 1.00D+00 WtEn= 0.00D+00
 Coeff-Com: -0.379D-03 0.308D-02 0.172D-01 0.723D-02-0.160D+00-0.952D-01
 Coeff-Com:  0.123D+01
 Coeff:     -0.379D-03 0.308D-02 0.172D-01 0.723D-02-0.160D+00-0.952D-01
 Coeff:      0.123D+01
 Gap=     0.558 Goal=   None    Shift=    0.000
 RMSDP=1.08D-05 MaxDP=3.64D-04 DE=-2.63D-05 OVMax= 8.50D-04

 Cycle   8  Pass 0  IDiag  1:
 RMSU=  2.62D-06    CP:  9.72D-01  8.26D-01  1.00D+00  9.54D-01  1.61D+00
                    CP:  1.36D+00  1.49D+00
 E= -984.559040317904     Delta-E=       -0.000004996576 Rises=F Damp=F
 DIIS: error= 1.87D-05 at cycle   8 NSaved=   8.
 NSaved= 8 IEnMin= 8 EnMin= -984.559040317904     IErMin= 8 ErrMin= 1.87D-05
 ErrMax= 1.87D-05 EMaxC= 1.00D-01 BMatC= 2.74D-07 BMatP= 1.63D-06
 IDIUse=1 WtCom= 1.00D+00 WtEn= 0.00D+00
 Coeff-Com: -0.305D-03 0.179D-02 0.108D-01 0.134D-01-0.659D-01-0.150D+00
 Coeff-Com:  0.274D+00 0.915D+00
 Coeff:     -0.305D-03 0.179D-02 0.108D-01 0.134D-01-0.659D-01-0.150D+00
 Coeff:      0.274D+00 0.915D+00
 Gap=     0.558 Goal=   None    Shift=    0.000
 RMSDP=3.49D-06 MaxDP=1.19D-04 DE=-5.00D-06 OVMax= 2.77D-04

 Initial convergence to 1.0D-05 achieved.  Increase integral accuracy.
 Cycle   9  Pass 1  IDiag  1:
 E= -984.559051739789     Delta-E=       -0.000011421884 Rises=F Damp=F
 DIIS: error= 1.30D-05 at cycle   1 NSaved=   1.
 NSaved= 1 IEnMin= 1 EnMin= -984.559051739789     IErMin= 1 ErrMin= 1.30D-05
 ErrMax= 1.30D-05 EMaxC= 1.00D-01 BMatC= 8.08D-08 BMatP= 8.08D-08
 IDIUse=1 WtCom= 1.00D+00 WtEn= 0.00D+00
 Coeff-Com:  0.100D+01
 Coeff:      0.100D+01
 Gap=     0.558 Goal=   None    Shift=    0.000
 RMSDP=3.49D-06 MaxDP=1.19D-04 DE=-1.14D-05 OVMax= 4.70D-05

 Cycle  10  Pass 1  IDiag  1:
 RMSU=  2.60D-06    CP:  1.00D+00
 E= -984.559051829958     Delta-E=       -0.000000090170 Rises=F Damp=F
 DIIS: error= 3.90D-06 at cycle   2 NSaved=   2.
 NSaved= 2 IEnMin= 2 EnMin= -984.559051829958     IErMin= 2 ErrMin= 3.90D-06
 ErrMax= 3.90D-06 EMaxC= 1.00D-01 BMatC= 1.19D-08 BMatP= 8.08D-08
 IDIUse=1 WtCom= 1.00D+00 WtEn= 0.00D+00
 Coeff-Com:  0.115D+00 0.885D+00
 Coeff:      0.115D+00 0.885D+00
 Gap=     0.558 Goal=   None    Shift=    0.000
 RMSDP=4.75D-07 MaxDP=2.94D-05 DE=-9.02D-08 OVMax= 3.60D-05

 SCF Done:  E(RHF) =  -984.559051830     A.U. after   10 cycles
             Convg  =    0.4747D-06             -V/T =  2.0015
 KE= 9.830877693473D+02 PE=-5.784634999284D+03 EE= 2.078754563926D+03
 Leave Link  502 at Tue Jul  5 04:33:06 2016, MaxMem=   33554432 cpu:     210.5
 (Enter /home/kanhaya91/Software/g09/l801.exe)
 Range of M.O.s used for correlation:     1   344
 NBasis=   344 NAE=    77 NBE=    77 NFC=     0 NFV=     0
 NROrb=    344 NOA=    77 NOB=    77 NVA=   267 NVB=   267
 Leave Link  801 at Tue Jul  5 04:33:07 2016, MaxMem=   33554432 cpu:       0.0
 (Enter /home/kanhaya91/Software/g09/l1101.exe)
 Using compressed storage, NAtomX=    42.
 Will process  43 centers per pass.
 Leave Link 1101 at Tue Jul  5 04:33:07 2016, MaxMem=   33554432 cpu:       0.9
 (Enter /home/kanhaya91/Software/g09/l1102.exe)
 Symmetrizing basis deriv contribution to polar:
 IMax=3 JMax=2 DiffMx= 0.00D+00
 Leave Link 1102 at Tue Jul  5 04:33:08 2016, MaxMem=   33554432 cpu:       0.1
 (Enter /home/kanhaya91/Software/g09/l1110.exe)
 Forming Gx(P) for the SCF density, NAtomX=    42.
 Integral derivatives from FoFDir/FoFCou, PRISM(SPDF).
 Do as many integral derivatives as possible in FoFDir.
 G2DrvN: MDV=      33553992.
 G2DrvN: will do    43 centers at a time, making    1 passes doing MaxLOS=2.
 Calling FoFCou, ICntrl=  3107 FMM=F I1Cent=   0 AccDes= 0.00D+00.
 FoFCou: FMM=F IPFlag=           0 FMFlag=      100000 FMFlg1=           0
         NFxFlg=           0 DoJE=F BraDBF=F KetDBF=F FulRan=T
         Omega=  0.000000  0.000000  1.000000  0.000000  0.000000 ICntrl=    3107 IOpCl=  0
         NMat0=    1 NMatS0=    1 NMatT0=    0 NMatD0=    1 NMtDS0=    0 NMtDT0=    0
         I1Cent=           0 NGrid=           0.
 Symmetry not used in FoFCou.
 FoFDir/FoFCou used for L=0 through L=2.
 End of G2Drv Frequency-dependent properties file   721 does not exist.
 End of G2Drv Frequency-dependent properties file   722 does not exist.
 Leave Link 1110 at Tue Jul  5 04:37:33 2016, MaxMem=   33554432 cpu:     264.6
 (Enter /home/kanhaya91/Software/g09/l1002.exe)
 Minotr:  Closed shell wavefunction.
          IDoAtm=111111111111111111111111111111111111111111
          Direct CPHF calculation.
          Differentiating once with respect to nuclear coordinates.
          Requested convergence is 1.0D-06 RMS, and 1.0D-05 maximum.
          Secondary convergence is 1.0D-12 RMS, and 1.0D-12 maximum.
          NewPWx=T KeepS1=F KeepF1=F KeepIn=T MapXYZ=F SortEE=F KeepMc=T.
          MDV=      33554008 using IRadAn=       2.
          Solving linear equations simultaneously, MaxMat=       0.
 Integrals replicated using symmetry in FoFDir.
 MinBra= 0 MaxBra= 2 Meth= 1.
 IRaf=       0 NMat= 129 IRICut=     322 DoRegI=T DoRafI=T ISym2E= 2 JSym2E=2.
          There are   129 degrees of freedom in the 1st order CPHF.  IDoFFX=5.
    123 vectors produced by pass  0 Test12= 2.06D-10 1.00D-07 XBig12= 9.75D-02 4.61D-02.
 AX will form   123 AO Fock derivatives at one time.
    123 vectors produced by pass  1 Test12= 2.06D-10 1.00D-07 XBig12= 7.16D-03 2.91D-02.
    123 vectors produced by pass  2 Test12= 2.06D-10 1.00D-07 XBig12= 1.33D-04 2.21D-03.
    123 vectors produced by pass  3 Test12= 2.06D-10 1.00D-07 XBig12= 1.14D-06 1.35D-04.
    123 vectors produced by pass  4 Test12= 2.06D-10 1.00D-07 XBig12= 7.19D-09 7.28D-06.
     35 vectors produced by pass  5 Test12= 2.06D-10 1.00D-07 XBig12= 4.06D-11 4.96D-07.
 Inverted reduced A of dimension   650 with in-core refinement.
 End of Minotr Frequency-dependent properties file   721 does not exist.
 End of Minotr Frequency-dependent properties file   722 does not exist.
 Leave Link 1002 at Tue Jul  5 05:27:07 2016, MaxMem=   33554432 cpu:    2970.5
 (Enter /home/kanhaya91/Software/g09/l601.exe)
 Copying SCF densities to generalized density rwf, IOpCl= 0 IROHF=0.

 **********************************************************************

            Population analysis using the SCF density.

 **********************************************************************

 Orbital symmetries:
       Occupied  (A) (A) (A) (A) (A) (A) (A) (A) (A) (A) (A) (A)
                 (A) (A) (A) (A) (A) (A) (A) (A) (A) (A) (A) (A)
                 (A) (A) (A) (A) (A) (A) (A) (A) (A) (A) (A) (A)
                 (A) (A) (A) (A) (A) (A) (A) (A) (A) (A) (A) (A)
                 (A) (A) (A) (A) (A) (A) (A) (A) (A) (A) (A) (A)
                 (A) (A) (A) (A) (A) (A) (A) (A) (A) (A) (A) (A)
                 (A) (A) (A) (A) (A)
       Virtual   (A) (A) (A) (A) (A) (A) (A) (A) (A) (A) (A) (A)
                 (A) (A) (A) (A) (A) (A) (A) (A) (A) (A) (A) (A)
                 (A) (A) (A) (A) (A) (A) (A) (A) (A) (A) (A) (A)
                 (A) (A) (A) (A) (A) (A) (A) (A) (A) (A) (A) (A)
                 (A) (A) (A) (A) (A) (A) (A) (A) (A) (A) (A) (A)
                 (A) (A) (A) (A) (A) (A) (A) (A) (A) (A) (A) (A)
                 (A) (A) (A) (A) (A) (A) (A) (A) (A) (A) (A) (A)
                 (A) (A) (A) (A) (A) (A) (A) (A) (A) (A) (A) (A)
                 (A) (A) (A) (A) (A) (A) (A) (A) (A) (A) (A) (A)
                 (A) (A) (A) (A) (A) (A) (A) (A) (A) (A) (A) (A)
                 (A) (A) (A) (A) (A) (A) (A) (A) (A) (A) (A) (A)
                 (A) (A) (A) (A) (A) (A) (A) (A) (A) (A) (A) (A)
                 (A) (A) (A) (A) (A) (A) (A) (A) (A) (A) (A) (A)
                 (A) (A) (A) (A) (A) (A) (A) (A) (A) (A) (A) (A)
                 (A) (A) (A) (A) (A) (A) (A) (A) (A) (A) (A) (A)
                 (A) (A) (A) (A) (A) (A) (A) (A) (A) (A) (A) (A)
                 (A) (A) (A) (A) (A) (A) (A) (A) (A) (A) (A) (A)
                 (A) (A) (A) (A) (A) (A) (A) (A) (A) (A) (A) (A)
                 (A) (A) (A) (A) (A) (A) (A) (A) (A) (A) (A) (A)
                 (A) (A) (A) (A) (A) (A) (A) (A) (A) (A) (A) (A)
                 (A) (A) (A) (A) (A) (A) (A) (A) (A) (A) (A) (A)
                 (A) (A) (A) (A) (A) (A) (A) (A) (A) (A) (A) (A)
                 (A) (A) (A)
 The electronic state is 1-A.
 Alpha  occ. eigenvalues --  -20.54810 -20.52820 -20.52406 -20.52044 -15.61166
 Alpha  occ. eigenvalues --  -15.59148 -15.58710 -15.58158 -11.37198 -11.35352
 Alpha  occ. eigenvalues --  -11.34475 -11.34381 -11.29244 -11.27608 -11.27410
 Alpha  occ. eigenvalues --  -11.25411 -11.24157 -11.24027 -11.21610 -11.20580
 Alpha  occ. eigenvalues --   -1.41723  -1.39910  -1.39425  -1.38803  -1.26570
 Alpha  occ. eigenvalues --   -1.24802  -1.23548  -1.22435  -1.07312  -1.04650
 Alpha  occ. eigenvalues --   -1.02405  -1.00510  -0.95845  -0.91238  -0.89223
 Alpha  occ. eigenvalues --   -0.85825  -0.82192  -0.80070  -0.79122  -0.78127
 Alpha  occ. eigenvalues --   -0.75471  -0.71779  -0.69636  -0.69353  -0.67213
 Alpha  occ. eigenvalues --   -0.66410  -0.64447  -0.63993  -0.62671  -0.62224
 Alpha  occ. eigenvalues --   -0.61596  -0.61113  -0.59945  -0.59815  -0.59268
 Alpha  occ. eigenvalues --   -0.58367  -0.57019  -0.56248  -0.55475  -0.55064
 Alpha  occ. eigenvalues --   -0.54844  -0.54259  -0.53920  -0.52674  -0.52096
 Alpha  occ. eigenvalues --   -0.51629  -0.50830  -0.50419  -0.48609  -0.45063
 Alpha  occ. eigenvalues --   -0.44414  -0.43539  -0.41922  -0.40083  -0.39358
 Alpha  occ. eigenvalues --   -0.38499  -0.38190
 Alpha virt. eigenvalues --    0.17567   0.18612   0.19136   0.19838   0.20856
 Alpha virt. eigenvalues --    0.22360   0.24487   0.25256   0.26992   0.27857
 Alpha virt. eigenvalues --    0.28033   0.29094   0.29339   0.30280   0.30617
 Alpha virt. eigenvalues --    0.31561   0.31721   0.32470   0.32618   0.32919
 Alpha virt. eigenvalues --    0.33369   0.33855   0.34359   0.34895   0.35317
 Alpha virt. eigenvalues --    0.36810   0.37504   0.38058   0.38813   0.40354
 Alpha virt. eigenvalues --    0.40706   0.41220   0.42319   0.43961   0.46399
 Alpha virt. eigenvalues --    0.46930   0.48817   0.50377   0.51284   0.54039
 Alpha virt. eigenvalues --    0.56877   0.59210   0.62882   0.64490   0.66702
 Alpha virt. eigenvalues --    0.70756   0.71143   0.72407   0.72845   0.73761
 Alpha virt. eigenvalues --    0.73938   0.74584   0.75240   0.76283   0.76830
 Alpha virt. eigenvalues --    0.77398   0.78643   0.79489   0.80693   0.81564
 Alpha virt. eigenvalues --    0.82776   0.83615   0.84174   0.86576   0.87694
 Alpha virt. eigenvalues --    0.88464   0.90612   0.91183   0.93294   0.94002
 Alpha virt. eigenvalues --    0.94789   0.95530   0.95704   0.96358   0.98277
 Alpha virt. eigenvalues --    0.99818   1.00658   1.01265   1.01871   1.02998
 Alpha virt. eigenvalues --    1.04351   1.05005   1.05922   1.06252   1.08020
 Alpha virt. eigenvalues --    1.08490   1.09562   1.10208   1.11097   1.11452
 Alpha virt. eigenvalues --    1.12441   1.13038   1.14000   1.14537   1.15016
 Alpha virt. eigenvalues --    1.16014   1.16622   1.17058   1.17307   1.17675
 Alpha virt. eigenvalues --    1.18476   1.18892   1.19847   1.20184   1.20626
 Alpha virt. eigenvalues --    1.21190   1.22062   1.22373   1.23760   1.23998
 Alpha virt. eigenvalues --    1.24594   1.25852   1.26022   1.27203   1.29529
 Alpha virt. eigenvalues --    1.30225   1.30863   1.32185   1.33257   1.37120
 Alpha virt. eigenvalues --    1.37637   1.39711   1.39976   1.40730   1.43246
 Alpha virt. eigenvalues --    1.43943   1.46908   1.48408   1.50452   1.51488
 Alpha virt. eigenvalues --    1.52677   1.53736   1.55796   1.60565   1.62662
 Alpha virt. eigenvalues --    1.63248   1.65113   1.66634   1.67067   1.70171
 Alpha virt. eigenvalues --    1.71842   1.72658   1.73935   1.75578   1.76833
 Alpha virt. eigenvalues --    1.79093   1.80676   1.81167   1.85806   1.86643
 Alpha virt. eigenvalues --    1.88057   1.88766   1.94085   1.95240   1.97288
 Alpha virt. eigenvalues --    1.99213   2.00471   2.00855   2.04657   2.07385
 Alpha virt. eigenvalues --    2.07579   2.08094   2.08829   2.09348   2.11838
 Alpha virt. eigenvalues --    2.12243   2.13049   2.15422   2.16310   2.17289
 Alpha virt. eigenvalues --    2.17994   2.18602   2.20279   2.22288   2.24377
 Alpha virt. eigenvalues --    2.25191   2.25773   2.25984   2.26648   2.28516
 Alpha virt. eigenvalues --    2.28954   2.29980   2.32201   2.34269   2.35716
 Alpha virt. eigenvalues --    2.36111   2.36580   2.39025   2.39806   2.41360
 Alpha virt. eigenvalues --    2.42118   2.42596   2.44173   2.44857   2.46103
 Alpha virt. eigenvalues --    2.48991   2.50566   2.54089   2.54994   2.56395
 Alpha virt. eigenvalues --    2.56744   2.59757   2.60271   2.61605   2.62653
 Alpha virt. eigenvalues --    2.62915   2.65638   2.66574   2.67006   2.69356
 Alpha virt. eigenvalues --    2.71491   2.72543   2.73518   2.73831   2.75400
 Alpha virt. eigenvalues --    2.79334   2.80482   2.82269   2.82717   2.87308
 Alpha virt. eigenvalues --    2.87945   2.91317   2.93555   2.95932   2.97743
 Alpha virt. eigenvalues --    2.98580   3.00954   3.02502   3.03138   3.05044
 Alpha virt. eigenvalues --    3.09016   3.11237   3.13433   3.14045   3.15563
 Alpha virt. eigenvalues --    3.21672   3.28945   3.30465   3.36056   3.38904
 Alpha virt. eigenvalues --    3.40294   3.42684   3.44676   3.52282   3.56227
 Alpha virt. eigenvalues --    3.56627   3.60327   4.38533   4.39408   4.47254
 Alpha virt. eigenvalues --    4.50388   4.54277   4.57221   4.60228   4.63146
 Alpha virt. eigenvalues --    4.63634   4.64709   4.68116   4.72764   4.79543
 Alpha virt. eigenvalues --    4.80338   4.85317   4.86620   4.93215   5.07566
 Alpha virt. eigenvalues --    5.13047   5.16619
          Condensed to atoms (all electrons):
              1          2          3          4          5          6
     1  H    0.397608   0.375200  -0.018545  -0.015082  -0.026362   0.000008
     2  C    0.375200   5.277715   0.376102   0.377082   0.368452  -0.066844
     3  H   -0.018545   0.376102   0.532020  -0.024051  -0.042090   0.002601
     4  H   -0.015082   0.377082  -0.024051   0.485216  -0.027573  -0.000169
     5  C   -0.026362   0.368452  -0.042090  -0.027573   4.196143   0.550566
     6  O    0.000008  -0.066844   0.002601  -0.000169   0.550566   8.213631
     7  N    0.002469  -0.104565   0.004880   0.000721   0.273358  -0.103917
     8  H    0.000064   0.001039   0.001099  -0.000047  -0.017917   0.002432
     9  C   -0.000073   0.004269   0.000233  -0.000187  -0.030434   0.003983
    10  H   -0.000013   0.000211  -0.000001   0.000024   0.000654   0.005595
    11  C    0.000000  -0.000062  -0.000034   0.000008   0.003507   0.000505
    12  H    0.000000  -0.000009   0.000002   0.000001  -0.000049  -0.000010
    13  H    0.000000   0.000002   0.000000   0.000000  -0.000037   0.000002
    14  H    0.000000  -0.000011  -0.000003  -0.000001  -0.000245  -0.000002
    15  C    0.000009  -0.000126  -0.000020  -0.000001  -0.003208   0.003297
    16  O    0.000000   0.000000   0.000000   0.000000   0.000007  -0.000048
    17  N    0.000007  -0.000027   0.000007  -0.000001   0.002021  -0.001547
    18  H   -0.000017  -0.000048   0.000038   0.000003   0.001063  -0.001144
    19  C    0.000000  -0.000003   0.000000   0.000000  -0.000177  -0.000117
    20  H    0.000000   0.000000   0.000000   0.000000  -0.000004   0.000001
    21  C    0.000000   0.000000   0.000000   0.000000   0.000001   0.000000
    22  H    0.000000   0.000000   0.000000   0.000000   0.000000   0.000000
[...]
    37  N    6.088957   6.689223   5.894191   6.814065   3.999900
    38  H    5.204859   5.750820   5.011811   5.995900   3.054775
    39  C    6.671536   7.398828   6.304534   7.301171   4.925658
    40  H    6.075183   6.839473   5.577264   6.685999   4.601987
    41  H    7.584817   8.258575   7.156565   8.265612   5.753456
    42  H    7.051812   7.864336   6.757774   7.555135   5.466810
                   16         17         18         19         20
    16  O    0.000000
    17  N    2.240047   0.000000
    18  H    3.108459   0.993512   0.000000
    19  C    2.780934   1.450865   2.121959   0.000000
    20  H    2.618557   2.063770   2.874702   1.080840   0.000000
    21  C    4.241695   2.437707   2.541137   1.527448   2.143446
    22  H    4.751782   2.714228   2.497627   2.169992   3.052583
    23  H    4.880643   3.369175   3.595987   2.146290   2.471336
    24  H    4.522020   2.690268   2.637074   2.160074   2.477601
    25  C    3.184755   2.515835   3.175962   1.533284   2.085812
    26  O    4.032827   3.597149   4.269542   2.351895   2.532567
    27  N    3.274895   2.788352   3.302415   2.467196   3.170794
    28  H    3.022622   2.374008   2.730445   2.600815   3.404506
    29  C    4.335984   4.221773   4.711178   3.837557   4.422166
    30  H    4.947852   4.749380   5.270821   4.042490   4.537438
    31  C    5.393271   4.969603   5.196675   4.828102   5.603901
    32  H    5.191260   4.818267   4.954569   4.997686   5.807932
    33  H    6.232562   6.001616   6.267336   5.797346   6.504963
    34  H    5.853439   5.011771   5.091767   4.781515   5.664270
    35  C    4.294115   4.922672   5.561763   4.676202   5.009202
    36  O    5.438294   6.115679   6.720792   5.844984   6.169819
    37  N    3.323211   4.499577   5.264998   4.408969   4.532027
    38  H    2.353165   3.593136   4.412795   3.570909   3.651763
    39  C    4.052102   5.661486   6.462757   5.646038   5.595830
    40  H    3.599036   5.515600   6.357194   5.612565   5.416915
    41  H    4.814769   6.383275   7.228851   6.153982   6.017831
    42  H    4.719820   6.255343   6.964140   6.396898   6.459775
                   21         22         23         24         25
    21  C    0.000000
    22  H    1.086771   0.000000
    23  H    1.080626   1.755965   0.000000
    24  H    1.084841   1.763818   1.761363   0.000000
    25  C    2.502394   2.802506   2.675647   3.449857   0.000000
    26  O    2.971964   3.395008   2.678054   3.930477   1.202438
    27  N    3.453885   3.407358   3.814743   4.381561   1.344958
    28  H    3.600432   3.434145   4.205399   4.389837   2.031782
    29  C    4.727032   4.606032   4.892502   5.722897   2.454163
    30  H    4.746805   4.685371   4.669376   5.799079   2.524120
    31  C    5.484981   5.068604   5.743375   6.468218   3.623738
    32  H    5.744167   5.288426   6.183860   6.632052   4.021956
    33  H    6.462944   6.066550   6.627327   7.473765   4.487421
    34  H    5.135142   4.558344   5.351494   6.126411   3.677808
    35  C    5.837279   5.886062   6.015897   6.756234   3.386162
    36  O    6.940707   6.936697   7.046630   7.894995   4.487623
    37  N    5.785115   6.015818   6.059233   6.566538   3.417021
    38  H    5.018570   5.327422   5.376314   5.720444   2.819762
    39  C    7.084307   7.393556   7.340688   7.797301   4.763881
    40  H    7.115186   7.530099   7.431931   7.703338   4.993689
    41  H    7.536719   7.898406   7.647560   8.291993   5.148009
    42  H    7.817067   8.016359   8.141372   8.541815   5.501889
                   26         27         28         29         30
    26  O    0.000000
    27  N    2.250988   0.000000
    28  H    3.126579   0.996619   0.000000
    29  C    2.813557   1.449833   2.104815   0.000000
    30  H    2.402737   2.046358   2.924570   1.080386   0.000000
    31  C    4.096301   2.447945   2.643510   1.528647   2.145610
    32  H    4.729543   2.707424   2.497721   2.168645   3.051420
    33  H    4.772859   3.378664   3.660143   2.151221   2.496799
    34  H    4.114132   2.705538   2.904546   2.153560   2.455565
    35  C    3.645991   2.505299   2.965221   1.533885   2.096651
    36  O    4.586973   3.606663   4.058038   2.368178   2.669651
    37  N    3.802403   2.761777   3.043807   2.464451   3.068613
    38  H    3.384201   2.351450   2.534487   2.612575   3.246733
    39  C    5.036189   4.201946   4.416102   3.816375   4.323572
    40  H    5.335151   4.595519   4.706745   4.520080   5.055542
    41  H    5.171123   4.732626   5.128410   4.172488   4.433551
    42  H    5.869169   4.726561   4.804011   4.196674   4.822226
                   31         32         33         34         35
    31  C    0.000000
    32  H    1.085674   0.000000
    33  H    1.080348   1.758121   0.000000
    34  H    1.084495   1.759521   1.765115   0.000000
    35  C    2.509898   2.826470   2.677631   3.449553   0.000000
    36  O    2.875155   3.252722   2.557734   3.860128   1.205735
    37  N    3.584202   3.645744   3.928653   4.478023   1.338784
    38  H    3.823125   3.821319   4.396974   4.570621   2.033055
    39  C    4.805030   4.789038   4.946670   5.779480   2.420577
    40  H    5.582432   5.479566   5.857009   6.505759   3.292053
    41  H    5.239217   5.410237   5.235891   6.190697   2.743335
    42  H    4.878783   4.708821   4.893999   5.926062   2.747597
                   36         37         38         39         40
    36  O    0.000000
    37  N    2.235426   0.000000
    38  H    3.119655   0.993671   0.000000
    39  C    2.741748   1.444744   2.109242   0.000000
    40  H    3.788159   2.058726   2.265509   1.081495   0.000000
    41  H    2.777911   2.094987   2.818607   1.083105   1.763447
    42  H    2.769677   2.093788   2.836133   1.083249   1.763024
                   41         42
    41  H    0.000000
    42  H    1.754399   0.000000
 Stoichiometry    C12H22N4O4
 Framework group  C1[X(C12H22N4O4)]
 Deg. of freedom   120
 Full point group                 C1      NOp   1
 Largest Abelian subgroup         C1      NOp   1
 Largest concise Abelian subgroup C1      NOp   1
                         Standard orientation:                         
 ---------------------------------------------------------------------
 Center     Atomic      Atomic             Coordinates (Angstroms)
 Number     Number       Type             X           Y           Z
 ---------------------------------------------------------------------
      1          1           0        2.648792   -2.162920   -3.058468
      2          6           0        3.273767   -2.077632   -2.181424
      3          1           0        4.136329   -1.460003   -2.403445
      4          1           0        3.623305   -3.069815   -1.913532
      5          6           0        2.449347   -1.525830   -1.042324
      6          8           0        1.258589   -1.674289   -0.977164
      7          7           0        3.131769   -0.841163   -0.084043
      8          1           0        4.126474   -0.875913   -0.111795
      9          6           0        2.515435   -0.554988    1.202698
     10          1           0        2.049248   -1.451454    1.589907
     11          6           0        3.575022   -0.064683    2.189430
     12          1           0        4.057702    0.838163    1.828437
     13          1           0        3.112330    0.150623    3.142937
     14          1           0        4.333025   -0.826181    2.342139
     15          6           0        1.382612    0.465758    1.126745
     16          8           0        0.563901    0.500732    2.009843
     17          7           0        1.370395    1.311896    0.083865
     18          1           0        2.063723    1.206279   -0.619844
     19          6           0        0.355224    2.337270   -0.067937
     20          1           0        0.236185    2.840675    0.881078
     21          6           0        0.793895    3.348586   -1.125249
     22          1           0        0.924710    2.871070   -2.092686
     23          1           0        0.040212    4.116355   -1.226465
     24          1           0        1.731370    3.813166   -0.838570
     25          6           0       -1.046143    1.813642   -0.404010
     26          8           0       -1.968038    2.582897   -0.339106
     27          7           0       -1.164154    0.525375   -0.771911
     28          1           0       -0.352143   -0.050666   -0.817358
     29          6           0       -2.442800   -0.095823   -1.056853
     30          1           0       -3.143527    0.700845   -1.260656
     31          6           0       -2.335812   -1.005045   -2.281039
     32          1           0       -1.591732   -1.780156   -2.125369
     33          1           0       -3.288414   -1.477299   -2.472555
     34          1           0       -2.045121   -0.422065   -3.148082
     35          6           0       -3.041896   -0.870487    0.123733
     36          8           0       -4.067311   -1.484251   -0.036314
     37          7           0       -2.400548   -0.821726    1.297887
     38          1           0       -1.563754   -0.294789    1.395338
     39          6           0       -2.937017   -1.488996    2.461604
     40          1           0       -2.267090   -1.314089    3.292409
     41          1           0       -3.919495   -1.108025    2.712030
     42          1           0       -3.021298   -2.555820    2.293645
 ---------------------------------------------------------------------
 Rotational constants (GHZ):      0.4093864      0.2344363      0.2181294
 Leave Link  202 at Tue Jul  5 10:11:24 2016, MaxMem=   33554432 cpu:       0.0
 (Enter /home/kanhaya91/Software/g09/l301.exe)
 Standard basis: 6-31G(d) (6D, 7F)
 Ernie: Thresh=  0.10000D-02 Tol=  0.10000D-05 Strict=F.
 There are   344 symmetry adapted basis functions of A   symmetry.
 Integral buffers will be    131072 words long.
 Raffenetti 1 integral format.
 Two-electron integral symmetry is turned on.
   344 basis functions,   648 primitive gaussians,   344 cartesian basis functions
    77 alpha electrons       77 beta electrons
       nuclear repulsion energy      1742.1093248555 Hartrees.
 IExCor=    0 DFT=F Ex=HF Corr=None ExCW=0 ScaHFX=  1.000000
 ScaDFX=  1.000000  1.000000  1.000000  1.000000 ScalE2=  1.000000  1.000000
 IRadAn=      0 IRanWt=     -1 IRanGd=            0 ICorTp=0
 NAtoms=   42 NActive=   42 NUniq=   42 SFac= 7.50D-01 NAtFMM=   80 NAOKFM=F Big=F
 Leave Link  301 at Tue Jul  5 10:11:24 2016, MaxMem=   33554432 cpu:       0.1
 (Enter /home/kanhaya91/Software/g09/l302.exe)
 NPDir=0 NMtPBC=     1 NCelOv=     1 NCel=       1 NClECP=     1 NCelD=      1
         NCelK=      1 NCelE2=     1 NClLst=     1 CellRange=     0.0.
 One-electron integrals computed using PRISM.
 NBasis=   344 RedAO= T  NBF=   344
 NBsUse=   344 1.00D-06 NBFU=   344
 Leave Link  302 at Tue Jul  5 10:11:24 2016, MaxMem=   33554432 cpu:       0.5
 (Enter /home/kanhaya91/Software/g09/l303.exe)
 DipDrv:  MaxL=1.
 Leave Link  303 at Tue Jul  5 10:11:25 2016, MaxMem=   33554432 cpu:       0.1
 (Enter /home/kanhaya91/Software/g09/l401.exe)
 Initial guess read from the read-write file.
 B after Tr=     0.000000    0.000000    0.000000
         Rot=    1.000000    0.000000    0.000000    0.000000 Ang=   0.00 deg.
 Guess basis will be translated and rotated to current coordinates.
 Initial guess orbital symmetries:
       Occupied  (A) (A) (A) (A) (A) (A) (A) (A) (A) (A) (A) (A)
                 (A) (A) (A) (A) (A) (A) (A) (A) (A) (A) (A) (A)
                 (A) (A) (A) (A) (A) (A) (A) (A) (A) (A) (A) (A)
                 (A) (A) (A) (A) (A) (A) (A) (A) (A) (A) (A) (A)
                 (A) (A) (A) (A) (A) (A) (A) (A) (A) (A) (A) (A)
                 (A) (A) (A) (A) (A) (A) (A) (A) (A) (A) (A) (A)
                 (A) (A) (A) (A) (A)
       Virtual   (A) (A) (A) (A) (A) (A) (A) (A) (A) (A) (A) (A)
                 (A) (A) (A) (A) (A) (A) (A) (A) (A) (A) (A) (A)
                 (A) (A) (A) (A) (A) (A) (A) (A) (A) (A) (A) (A)
                 (A) (A) (A) (A) (A) (A) (A) (A) (A) (A) (A) (A)
                 (A) (A) (A) (A) (A) (A) (A) (A) (A) (A) (A) (A)
                 (A) (A) (A) (A) (A) (A) (A) (A) (A) (A) (A) (A)
                 (A) (A) (A) (A) (A) (A) (A) (A) (A) (A) (A) (A)
                 (A) (A) (A) (A) (A) (A) (A) (A) (A) (A) (A) (A)
                 (A) (A) (A) (A) (A) (A) (A) (A) (A) (A) (A) (A)
                 (A) (A) (A) (A) (A) (A) (A) (A) (A) (A) (A) (A)
                 (A) (A) (A) (A) (A) (A) (A) (A) (A) (A) (A) (A)
                 (A) (A) (A) (A) (A) (A) (A) (A) (A) (A) (A) (A)
                 (A) (A) (A) (A) (A) (A) (A) (A) (A) (A) (A) (A)
                 (A) (A) (A) (A) (A) (A) (A) (A) (A) (A) (A) (A)
                 (A) (A) (A) (A) (A) (A) (A) (A) (A) (A) (A) (A)
                 (A) (A) (A) (A) (A) (A) (A) (A) (A) (A) (A) (A)
                 (A) (A) (A) (A) (A) (A) (A) (A) (A) (A) (A) (A)
                 (A) (A) (A) (A) (A) (A) (A) (A) (A) (A) (A) (A)
                 (A) (A) (A) (A) (A) (A) (A) (A) (A) (A) (A) (A)
                 (A) (A) (A) (A) (A) (A) (A) (A) (A) (A) (A) (A)
                 (A) (A) (A) (A) (A) (A) (A) (A) (A) (A) (A) (A)
                 (A) (A) (A) (A) (A) (A) (A) (A) (A) (A) (A) (A)
                 (A) (A) (A)
 The electronic state of the initial guess is 1-A.
 Generating alternative initial guess.
 Harris functional with IExCor=  205 diagonalized for initial guess.
 ExpMin= 1.61D-01 ExpMax= 5.48D+03 ExpMxC= 8.25D+02 IAcc=1 IRadAn=         1 AccDes= 0.00D+00
 HarFok:  IExCor=  205 AccDes= 0.00D+00 IRadAn=         1 IDoV= 1
 ScaDFX=  1.000000  1.000000  1.000000  1.000000
 FoFCou: FMM=F IPFlag=           0 FMFlag=      100000 FMFlg1=           0
         NFxFlg=           0 DoJE=T BraDBF=F KetDBF=T FulRan=T
         Omega=  0.000000  0.000000  1.000000  0.000000  0.000000 ICntrl=     500 IOpCl=  0
         NMat0=    1 NMatS0=    1 NMatT0=    0 NMatD0=    1 NMtDS0=    0 NMtDT0=    0
         I1Cent=           4 NGrid=           0.
 Petite list used in FoFCou.
 Harris En= -985.893761010216    
 Leave Link  401 at Tue Jul  5 10:11:31 2016, MaxMem=   33554432 cpu:       6.4
 (Enter /home/kanhaya91/Software/g09/l502.exe)
 Closed shell SCF:
 Requested convergence on RMS density matrix=1.00D-06 within 128 cycles.
 Requested convergence on MAX density matrix=1.00D-04.
 Requested convergence on             energy=1.00D-04.
 No special actions if energy rises.
 Using DIIS extrapolation, IDIIS=  1040.
 Integral symmetry usage will be decided dynamically.
 IEnd=      377834 IEndB=      377834 NGot=    33554432 MDV=    33311919
 LenX=    33311919 LenY=    33193142
 Fock matrices will be formed incrementally for  20 cycles.
 Integral accuracy reduced to 1.0D-05 until final iterations.

 Cycle   1  Pass 0  IDiag  1:
 FoFCou: FMM=F IPFlag=           0 FMFlag=      100000 FMFlg1=           0
         NFxFlg=           0 DoJE=F BraDBF=F KetDBF=F FulRan=T
         Omega=  0.000000  0.000000  1.000000  0.000000  0.000000 ICntrl=       0 IOpCl=  0
         NMat0=    1 NMatS0=    1 NMatT0=    0 NMatD0=    1 NMtDS0=    0 NMtDT0=    0
         I1Cent=           0 NGrid=           0.
 Symmetry not used in FoFCou.
 E= -984.565891552101    
 DIIS: error= 2.99D-03 at cycle   1 NSaved=   1.
 NSaved= 1 IEnMin= 1 EnMin= -984.565891552101     IErMin= 1 ErrMin= 2.99D-03
 ErrMax= 2.99D-03 EMaxC= 1.00D-01 BMatC= 1.74D-03 BMatP= 1.74D-03
 IDIUse=3 WtCom= 9.70D-01 WtEn= 2.99D-02
 Coeff-Com:  0.100D+01
 Coeff-En:   0.100D+01
 Coeff:      0.100D+01
 Gap=     0.521 Goal=   None    Shift=    0.000
 GapD=    0.521 DampG=2.000 DampE=1.000 DampFc=2.0000 IDamp=-1.
 RMSDP=1.24D-04 MaxDP=6.03D-03              OVMax= 9.49D-03

 Cycle   2  Pass 0  IDiag  1:
 RMSU=  8.78D-05    CP:  1.00D+00
 E= -984.568607045483     Delta-E=       -0.002715493382 Rises=F Damp=F
 DIIS: error= 9.50D-04 at cycle   2 NSaved=   2.
 NSaved= 2 IEnMin= 2 EnMin= -984.568607045483     IErMin= 2 ErrMin= 9.50D-04
 ErrMax= 9.50D-04 EMaxC= 1.00D-01 BMatC= 1.49D-04 BMatP= 1.74D-03
 IDIUse=3 WtCom= 9.90D-01 WtEn= 9.50D-03
 Coeff-Com: -0.354D+00 0.135D+01
 Coeff-En:   0.000D+00 0.100D+01
 Coeff:     -0.350D+00 0.135D+01
 Gap=     0.520 Goal=   None    Shift=    0.000
 RMSDP=5.94D-05 MaxDP=2.85D-03 DE=-2.72D-03 OVMax= 4.72D-03

 Cycle   3  Pass 0  IDiag  1:
 RMSU=  2.80D-05    CP:  1.00D+00  1.36D+00
 E= -984.568940577439     Delta-E=       -0.000333531956 Rises=F Damp=F
 DIIS: error= 1.16D-04 at cycle   3 NSaved=   3.
 NSaved= 3 IEnMin= 3 EnMin= -984.568940577439     IErMin= 3 ErrMin= 1.16D-04
 ErrMax= 1.16D-04 EMaxC= 1.00D-01 BMatC= 4.24D-06 BMatP= 1.49D-04
 IDIUse=3 WtCom= 9.99D-01 WtEn= 1.16D-03
 Coeff-Com:  0.159D-01-0.142D+00 0.113D+01
 Coeff-En:   0.000D+00 0.000D+00 0.100D+01
 Coeff:      0.159D-01-0.142D+00 0.113D+01
 Gap=     0.520 Goal=   None    Shift=    0.000
 RMSDP=1.51D-05 MaxDP=7.20D-04 DE=-3.34D-04 OVMax= 7.31D-04

 Cycle   4  Pass 0  IDiag  1:
 RMSU=  5.97D-06    CP:  1.00D+00  1.39D+00  1.29D+00
 E= -984.568951869708     Delta-E=       -0.000011292268 Rises=F Damp=F
 DIIS: error= 3.68D-05 at cycle   4 NSaved=   4.
 NSaved= 4 IEnMin= 4 EnMin= -984.568951869708     IErMin= 4 ErrMin= 3.68D-05
 ErrMax= 3.68D-05 EMaxC= 1.00D-01 BMatC= 8.45D-07 BMatP= 4.24D-06
 IDIUse=1 WtCom= 1.00D+00 WtEn= 0.00D+00
 Coeff-Com:  0.347D-01-0.153D+00 0.240D+00 0.878D+00
 Coeff:      0.347D-01-0.153D+00 0.240D+00 0.878D+00
 Gap=     0.520 Goal=   None    Shift=    0.000
 RMSDP=5.05D-06 MaxDP=1.80D-04 DE=-1.13D-05 OVMax= 2.40D-04

 Initial convergence to 1.0D-05 achieved.  Increase integral accuracy.
 Cycle   5  Pass 1  IDiag  1:
 E= -984.568965435068     Delta-E=       -0.000013565361 Rises=F Damp=F
 DIIS: error= 1.88D-05 at cycle   1 NSaved=   1.
 NSaved= 1 IEnMin= 1 EnMin= -984.568965435068     IErMin= 1 ErrMin= 1.88D-05
 ErrMax= 1.88D-05 EMaxC= 1.00D-01 BMatC= 1.85D-07 BMatP= 1.85D-07
 IDIUse=1 WtCom= 1.00D+00 WtEn= 0.00D+00
 Coeff-Com:  0.100D+01
 Coeff:      0.100D+01
 Gap=     0.520 Goal=   None    Shift=    0.000
 RMSDP=5.05D-06 MaxDP=1.80D-04 DE=-1.36D-05 OVMax= 1.13D-04

 Cycle   6  Pass 1  IDiag  1:
 RMSU=  2.68D-06    CP:  1.00D+00
 E= -984.568965755276     Delta-E=       -0.000000320208 Rises=F Damp=F
 DIIS: error= 1.02D-05 at cycle   2 NSaved=   2.
 NSaved= 2 IEnMin= 2 EnMin= -984.568965755276     IErMin= 2 ErrMin= 1.02D-05
 ErrMax= 1.02D-05 EMaxC= 1.00D-01 BMatC= 6.48D-08 BMatP= 1.85D-07
 IDIUse=1 WtCom= 1.00D+00 WtEn= 0.00D+00
 Coeff-Com:  0.251D+00 0.749D+00
 Coeff:      0.251D+00 0.749D+00
 Gap=     0.520 Goal=   None    Shift=    0.000
 RMSDP=8.84D-07 MaxDP=4.99D-05 DE=-3.20D-07 OVMax= 6.20D-05

 SCF Done:  E(RHF) =  -984.568965755     A.U. after    6 cycles
             Convg  =    0.8845D-06             -V/T =  2.0015
 KE= 9.831048755060D+02 PE=-5.792231581098D+03 EE= 2.082448414981D+03
 Leave Link  502 at Tue Jul  5 10:13:53 2016, MaxMem=   33554432 cpu:     141.2
 (Enter /home/kanhaya91/Software/g09/l701.exe)
 Compute integral first derivatives.
 ... and contract with generalized density number  0.
 Leave Link  701 at Tue Jul  5 10:13:53 2016, MaxMem=   33554432 cpu:       0.5
 (Enter /home/kanhaya91/Software/g09/l702.exe)
 L702 exits ... SP integral derivatives will be done elsewhere.
 Leave Link  702 at Tue Jul  5 10:13:54 2016, MaxMem=   33554432 cpu:       0.0
 (Enter /home/kanhaya91/Software/g09/l703.exe)
 Compute integral first derivatives, UseDBF=F ICtDFT=           0.
 Integral derivatives from FoFDir, PRISM(SPDF).
 Calling FoFJK, ICntrl=      2127 FMM=F ISym2X=0 I1Cent= 0 IOpClX= 0 NMat=1 NMatS=1 NMatT=0.
 FoFCou: FMM=F IPFlag=           0 FMFlag=      100000 FMFlg1=         800
         NFxFlg=           0 DoJE=F BraDBF=F KetDBF=F FulRan=T
         Omega=  0.000000  0.000000  1.000000  0.000000  0.000000 ICntrl=    2127 IOpCl=  0
         NMat0=    1 NMatS0=    1 NMatT0=    0 NMatD0=    1 NMtDS0=    0 NMtDT0=    0
         I1Cent=           0 NGrid=           0.
 Symmetry not used in FoFCou.
